 DBCSR| CPU Multiplication driver                                           XSMM
 DBCSR| Multrec recursion limit                                              512
 DBCSR| Multiplication stack size                                           1000
 DBCSR| Maximum elements for images                                    UNLIMITED
 DBCSR| Multiplicative factor virtual images                                   1
 DBCSR| Use multiplication densification                                       T
 DBCSR| Multiplication size stacks                                             3
 DBCSR| Use memory pool for CPU allocation                                     F
 DBCSR| Number of 3D layers                                               SINGLE
 DBCSR| Use MPI memory allocation                                              F
 DBCSR| Use RMA algorithm                                                      F
 DBCSR| Use Communication thread                                               T
 DBCSR| Communication thread load                                             87
 DBCSR| MPI: My node id                                                        0
 DBCSR| MPI: Number of nodes                                                  24
 DBCSR| OMP: Current number of threads                                         1
 DBCSR| OMP: Max number of threads                                             1
 DBCSR| Split modifier for TAS multiplication algorithm                  1.0E+00


  **** **** ******  **  PROGRAM STARTED AT               2021-10-25 09:47:35.915
 ***** ** ***  *** **   PROGRAM STARTED ON                                 node2
 **    ****   ******    PROGRAM STARTED BY                               lujunbo
 ***** **    ** ** **   PROGRAM PROCESS ID                                663393
  **** **  *******  **  PROGRAM STARTED IN /home/lujunbo/WORK/deepmd/c2h6/mtd/tr
                                           ain_4_sys/cp2k_md/sys_1

 CP2K| version string:                                          CP2K version 8.2
 CP2K| source code revision number:                                  git:310b7ab
 CP2K| cp2kflags: omp libint fftw3 libxc elpa parallel mpi3 scalapack xsmm plume
 CP2K|            d2 spglib mkl libvori libbqb
 CP2K| is freely available from                            https://www.cp2k.org/
 CP2K| Program compiled at                          Tue Jun  1 15:18:23 CST 2021
 CP2K| Program compiled on                                                   mgr
 CP2K| Program compiled for                                                local
 CP2K| Data directory path                       /home/lujunbo/bin/cp2k-8.2/data
 CP2K| Input file name                                             cp2k-aimd.inp

 GLOBAL| Force Environment number                                              1
 GLOBAL| Basis set file name            /home/lujunbo/bin/cp2k-8.2/data/BASIS_MO
 GLOBAL| Potential file name            /home/lujunbo/bin/cp2k-8.2/data/POTENTIA
 GLOBAL| MM Potential file name                                     MM_POTENTIAL
 GLOBAL| Coordinate file name                                           init.xyz
 GLOBAL| Method name                                                        CP2K
 GLOBAL| Project name                                                       test
 GLOBAL| Run type                                                             MD
 GLOBAL| FFT library                                                       FFTW3
 GLOBAL| Diagonalization library                                            ELPA
 GLOBAL| Minimum number of eigenvectors for ELPA usage                        16
 GLOBAL| Orthonormality check for eigenvectors                          DISABLED
 GLOBAL| Matrix multiplication library                                    SCALAP
 GLOBAL| All-to-all communication in single precision                          F
 GLOBAL| FFTs using library dependent lengths                                  F
 GLOBAL| Grid backend                                                       AUTO
 GLOBAL| Global print level                                                  LOW
 GLOBAL| MPI I/O enabled                                                       T
 GLOBAL| Total number of message passing processes                            24
 GLOBAL| Number of threads for this process                                    1
 GLOBAL| This output is from process                                           0
 GLOBAL| CPU model name             Intel(R) Xeon(R) Platinum 9242 CPU @ 2.30GHz
 GLOBAL| CPUID                                                              1003

 MEMORY| system memory details [Kb]
 MEMORY|                        rank 0           min           max       average
 MEMORY| MemTotal            394609400     394609400     394609400     394609400
 MEMORY| MemFree             130326960     130326960     130326960     130326960
 MEMORY| Buffers                164268        164268        164268        164268
 MEMORY| Cached              240910960     240910960     240910960     240910960
 MEMORY| Slab                  3130808       3130808       3130808       3130808
 MEMORY| SReclaimable          2426836       2426836       2426836       2426836
 MEMORY| MemLikelyFree       373829024     373829024     373829024     373829024


 GENERATE|  Preliminary Number of Bonds generated:                             0
 GENERATE|  Achieved consistency in connectivity generation.

 *******************************************************************************
 *******************************************************************************
 **                                                                           **
 **     #####                         ##              ##                      **
 **    ##   ##            ##          ##              ##                      **
 **   ##     ##                       ##            ######                    **
 **   ##     ##  ##   ##  ##   #####  ##  ##   ####   ##    #####    #####    **
 **   ##     ##  ##   ##  ##  ##      ## ##   ##      ##   ##   ##  ##   ##   **
 **   ##  ## ##  ##   ##  ##  ##      ####     ###    ##   ######   ######    **
 **    ##  ###   ##   ##  ##  ##      ## ##      ##   ##   ##       ##        **
 **     #######   #####   ##   #####  ##  ##  ####    ##    #####   ##        **
 **           ##                                                    ##        **
 **                                                                           **
 **                                                ... make the atoms dance   **
 **                                                                           **
 **            Copyright (C) by CP2K developers group (2000-2021)             **
 **                      J. Chem. Phys. 152, 194103 (2020)                    **
 **                                                                           **
 *******************************************************************************


 TOTAL NUMBERS AND MAXIMUM NUMBERS

  Total number of            - Atomic kinds:                                   2
                             - Atoms:                                          8
                             - Shell sets:                                     8
                             - Shells:                                        28
                             - Primitive Cartesian functions:                 40
                             - Cartesian basis functions:                     58
                             - Spherical basis functions:                     56

  Maximum angular momentum of- Orbital basis functions:                        2
                             - Local part of the GTH pseudopotential:          2
                             - Non-local part of the GTH pseudopotential:      0


 SCF PARAMETERS         Density guess:                                   RESTART
                        --------------------------------------------------------
                        max_scf:                                             100
                        max_scf_history:                                       0
                        max_diis:                                              4
                        --------------------------------------------------------
                        eps_scf:                                        1.00E-06
                        eps_scf_history:                                0.00E+00
                        eps_diis:                                       1.00E-01
                        eps_eigval:                                     1.00E-05
                        --------------------------------------------------------
                        level_shift [a.u.]:                                 0.00
                        --------------------------------------------------------
                        Outer loop SCF in use 
                        No variables optimised in outer loop
                        eps_scf                                         1.00E-06
                        max_scf                                                6
                        No outer loop optimization
                        step_size                                       5.00E-01

 MD_PAR| Molecular dynamics protocol (MD input parameters)
 MD_PAR| Ensemble type                                                       NVT
 MD_PAR| Number of time steps                                               1000
 MD_PAR| Time step [fs]                                                 0.500000
 MD_PAR| Temperature [K]                                               50.000000
 MD_PAR| Temperature tolerance [K]                                      0.000000
 MD_PAR| Print MD information every                                    1 step(s)
 MD_PAR| File type   Print frequency [steps]                          File names
 MD_PAR| Coordinates          1                                   test-pos-1.xyz
 MD_PAR| Velocities           1                                   test-vel-1.xyz
 MD_PAR| Energies             1                                      test-1.ener
 MD_PAR| Dump                 5                                   test-1.restart

 ROT| Rotational analysis information
 ROT| Principal axes and moments of inertia [a.u.]
 ROT|                           1                   2                   3
 ROT| Eigenvalues      4.29812258967E+04   1.61122461418E+05   1.61124555974E+05
 ROT|      x              0.999999999995     -0.000002273432      0.000002145956
 ROT|      y              0.000003021187      0.879236684833     -0.476385192921
 ROT|      z             -0.000000803774      0.476385192925      0.879236684836
 ROT| Number of rotovibrational vectors                                        6

 DOF| Calculation of degrees of freedom
 DOF| Number of atoms                                                          8
 DOF| Number of intramolecular constraints                                     0
 DOF| Number of intermolecular constraints                                     0
 DOF| Invariants (translations + rotations)                                    3
 DOF| Degrees of freedom                                                      21

 DOF| Restraints information
 DOF| Number of intramolecular restraints                                      0
 DOF| Number of intermolecular restraints                                      0

 THERMOSTAT| Thermostat information for PARTICLES
 THERMOSTAT| Type of thermostat                               Nose-Hoover-Chains
 THERMOSTAT| Nose-Hoover-Chain length                                          3
 THERMOSTAT| Nose-Hoover-Chain time constant [fs]                      50.000000
 THERMOSTAT| Order of Yoshida integrator                                       3
 THERMOSTAT| Number of multiple time steps                                     2
 THERMOSTAT| Initial potential energy                         0.000000000000E+00
 THERMOSTAT| Initial kinetic energy                           0.791703835822E-04
 THERMOSTAT| End of thermostat information for PARTICLES

 MD_VEL| Velocities initialization
 MD_VEL| Initial temperature [K]                                       50.000000
 MD_VEL| COM velocity             0.0000000000     0.0000000000    -0.0000000000

 Number of electrons:                                                         14
 Number of occupied orbitals:                                                  7
 Number of molecular orbitals:                                                 7

 Number of orbital functions:                                                 56
 Number of independent orbital functions:                                     56

 Extrapolation method: initial_guess

 *** WARNING in qs_initial_guess.F:309 :: User requested to restart the    ***
 *** wavefunction from the file named: ./cp2k-RESTART.wfn. This file does  ***
 *** not exist. Please check the existence of the file or change properly  ***
 *** the value of the keyword WFN_RESTART_FILE_NAME. Calculation continues ***
 *** using ATOMIC GUESS.                                                   ***



 SCF WAVEFUNCTION OPTIMIZATION

  ----------------------------------- OT ---------------------------------------
  Minimizer      : CG                  : conjugate gradient
  Preconditioner : FULL_ALL            : diagonalization, state selective
  Precond_solver : DEFAULT
  Line search    : 2PNT                : 2 energies, one gradient
  stepsize       :    0.15000000                  energy_gap     :    0.08000000
  eps_taylor     :   0.10000E-15                  max_taylor     :             4
  ----------------------------------- OT ---------------------------------------

  Step     Update method      Time    Convergence         Total energy    Change
  ------------------------------------------------------------------------------
     1 OT CG       0.15E+00    0.2     0.33799535       -12.7141632779 -1.27E+01
     2 OT LS       0.78E-01    0.1                      -12.9618176370
     3 OT CG       0.78E-01    0.2     0.22556339       -14.2982279970 -1.58E+00
     4 OT LS       0.41E-01    0.1                      -14.3566015390
     5 OT CG       0.41E-01    0.2     0.12562663       -14.6842389724 -3.86E-01
     6 OT LS       0.72E-01    0.1                      -14.8644900205
     7 OT CG       0.72E-01    0.2     0.05325501       -14.8968681419 -2.13E-01
     8 OT LS       0.78E-01    0.1                      -14.9348758247
     9 OT CG       0.78E-01    0.2     0.02925501       -14.9351250660 -3.83E-02
    10 OT LS       0.69E-01    0.1                      -14.9464758858
    11 OT CG       0.69E-01    0.2     0.01226128       -14.9466722315 -1.15E-02
    12 OT LS       0.95E-01    0.1                      -14.9492675980
    13 OT CG       0.95E-01    0.2     0.00737384       -14.9494860533 -2.81E-03
    14 OT LS       0.98E-01    0.1                      -14.9505287944
    15 OT CG       0.98E-01    0.2     0.00350857       -14.9505294973 -1.04E-03
    16 OT LS       0.75E-01    0.1                      -14.9506928770
    17 OT CG       0.75E-01    0.2     0.00128818       -14.9507102074 -1.81E-04
    18 OT LS       0.92E-01    0.1                      -14.9507391864
    19 OT CG       0.92E-01    0.2     0.00070787       -14.9507402864 -3.01E-05
    20 OT LS       0.85E-01    0.1                      -14.9507485936
    21 OT CG       0.85E-01    0.2     0.00036004       -14.9507486550 -8.37E-06
    22 OT LS       0.10E+00    0.1                      -14.9507511845
    23 OT CG       0.10E+00    0.2     0.00017213       -14.9507512584 -2.60E-06
    24 OT LS       0.96E-01    0.1                      -14.9507518104
    25 OT CG       0.96E-01    0.2     0.00010385       -14.9507518133 -5.55E-07
    26 OT LS       0.79E-01    0.1                      -14.9507519736
    27 OT CG       0.79E-01    0.2     0.00004481       -14.9507519807 -1.67E-07
    28 OT LS       0.11E+00    0.1                      -14.9507520199
    29 OT CG       0.11E+00    0.2     0.00002071       -14.9507520226 -4.19E-08
    30 OT LS       0.97E-01    0.1                      -14.9507520307
    31 OT CG       0.97E-01    0.2     0.00001311       -14.9507520308 -8.16E-09
    32 OT LS       0.82E-01    0.1                      -14.9507520335
    33 OT CG       0.82E-01    0.2     0.00000629       -14.9507520336 -2.77E-09
    34 OT LS       0.11E+00    0.1                      -14.9507520343
    35 OT CG       0.11E+00    0.2     0.00000274       -14.9507520344 -8.16E-10
    36 OT LS       0.88E-01    0.1                      -14.9507520345
    37 OT CG       0.88E-01    0.2     0.00000153       -14.9507520345 -1.30E-10
    38 OT LS       0.92E-01    0.1                      -14.9507520345
    39 OT CG       0.92E-01    0.2     0.00000076       -14.9507520345 -4.22E-11

  *** SCF run converged in    39 steps ***


  Electronic density on regular grids:        -14.0000000000        0.0000000000
  Core density on regular grids:               13.9999999989       -0.0000000011
  Total charge density on r-space grids:       -0.0000000010
  Total charge density g-space grids:          -0.0000000010

  Overlap energy of the core charge distribution:               0.00000091436037
  Self energy of the core charge distribution:                -35.13285960674677
  Core Hamiltonian energy:                                     11.33798697226105
  Hartree energy:                                              14.47892730253743
  Exchange-correlation energy:                                 -5.63480761695055

  Total energy:                                               -14.95075203453846

  outer SCF iter =    1 RMS gradient =   0.76E-06 energy =        -14.9507520345
  outer SCF loop converged in   1 iterations or   39 steps


 ENERGY| Total FORCE_EVAL ( QS ) energy [a.u.]:              -14.950752034547916

 MD_INI| MD initialization
 MD_INI| Potential energy [hartree]                          -0.149507520345E+02
 MD_INI| Kinetic energy [hartree]                             0.166257805523E-02
 MD_INI| Temperature [K]                                               50.000000
 MD_INI| Cell volume [bohr^3]                                 6.748334583090E+03
 MD_INI| Cell volume [ang^3]                                  1.000000000000E+03
 MD_INI| Cell lengths [bohr]      1.88972613E+01  1.88972613E+01  1.88972613E+01
 MD_INI| Cell lengths [ang]       1.00000000E+01  1.00000000E+01  1.00000000E+01
 MD_INI| Cell angles [deg]        9.00000000E+01  9.00000000E+01  9.00000000E+01

 Number of electrons:                                                         14
 Number of occupied orbitals:                                                  7
 Number of molecular orbitals:                                                 7

 Number of orbital functions:                                                 56
 Number of independent orbital functions:                                     56

 Extrapolation method: ASPC


 SCF WAVEFUNCTION OPTIMIZATION

  ----------------------------------- OT ---------------------------------------
  Minimizer      : CG                  : conjugate gradient
  Preconditioner : FULL_ALL            : diagonalization, state selective
  Precond_solver : DEFAULT
  Line search    : 2PNT                : 2 energies, one gradient
  stepsize       :    0.15000000                  energy_gap     :    0.08000000
  eps_taylor     :   0.10000E-15                  max_taylor     :             4
  ----------------------------------- OT ---------------------------------------

  Step     Update method      Time    Convergence         Total energy    Change
  ------------------------------------------------------------------------------
     1 OT CG       0.15E+00    0.2     0.00049708       -14.9505560583 -1.50E+01
     2 OT LS       0.19E+00    0.1                      -14.9505648986
     3 OT CG       0.19E+00    0.2     0.00021054       -14.9505653351 -9.28E-06
     4 OT LS       0.13E+00    0.1                      -14.9505662722
     5 OT CG       0.13E+00    0.2     0.00002355       -14.9505664933 -1.16E-06
     6 OT LS       0.17E+00    0.1                      -14.9505665110
     7 OT CG       0.17E+00    0.2     0.00000409       -14.9505665120 -1.87E-08
     8 OT LS       0.16E+00    0.1                      -14.9505665125
     9 OT CG       0.16E+00    0.2     0.00000150       -14.9505665125 -5.15E-10
    10 OT LS       0.14E+00    0.1                      -14.9505665125
    11 OT CG       0.14E+00    0.2     0.00000017       -14.9505665125 -6.10E-11

  *** SCF run converged in    11 steps ***


  Electronic density on regular grids:        -14.0000000000        0.0000000000
  Core density on regular grids:               13.9999999989       -0.0000000011
  Total charge density on r-space grids:       -0.0000000011
  Total charge density g-space grids:          -0.0000000011

  Overlap energy of the core charge distribution:               0.00000092506195
  Self energy of the core charge distribution:                -35.13285960674677
  Core Hamiltonian energy:                                     11.34203835247562
  Hartree energy:                                              14.47628555093879
  Exchange-correlation energy:                                 -5.63603173427449

  Total energy:                                               -14.95056651254491

  outer SCF iter =    1 RMS gradient =   0.17E-06 energy =        -14.9505665125
  outer SCF loop converged in   1 iterations or   11 steps


 ENERGY| Total FORCE_EVAL ( QS ) energy [a.u.]:              -14.950566512545869

 MD| ***************************************************************************
 MD| Step number                                                               1
 MD| Time [fs]                                                          0.500000
 MD| Conserved quantity [hartree]                            -0.149490098728E+02
 MD| ---------------------------------------------------------------------------
 MD|                                          Instantaneous             Averages
 MD| CPU time per MD step [s]                      8.399591             8.399591
 MD| Energy drift per atom [K]           0.163155481711E-01   0.000000000000E+00
 MD| Potential energy [hartree]         -0.149505665125E+02  -0.149505665125E+02
 MD| Kinetic energy [hartree]            0.147069059112E-02   0.147069059112E-02
 MD| Temperature [K]                              44.229219            44.229219
 MD| ***************************************************************************

 Number of electrons:                                                         14
 Number of occupied orbitals:                                                  7
 Number of molecular orbitals:                                                 7

 Number of orbital functions:                                                 56
 Number of independent orbital functions:                                     56

 Extrapolation method: ASPC


 SCF WAVEFUNCTION OPTIMIZATION

  ----------------------------------- OT ---------------------------------------
  Minimizer      : CG                  : conjugate gradient
  Preconditioner : FULL_ALL            : diagonalization, state selective
  Precond_solver : DEFAULT
  Line search    : 2PNT                : 2 energies, one gradient
  stepsize       :    0.15000000                  energy_gap     :    0.08000000
  eps_taylor     :   0.10000E-15                  max_taylor     :             4
  ----------------------------------- OT ---------------------------------------

  Step     Update method      Time    Convergence         Total energy    Change
  ------------------------------------------------------------------------------
     1 OT CG       0.15E+00    0.2     0.00023321       -14.9505404504 -1.50E+01
     2 OT LS       0.16E+00    0.1                      -14.9505421031
     3 OT CG       0.16E+00    0.2     0.00009756       -14.9505421050 -1.65E-06
     4 OT LS       0.15E+00    0.1                      -14.9505423895
     5 OT CG       0.15E+00    0.2     0.00001537       -14.9505423896 -2.85E-07
     6 OT LS       0.17E+00    0.1                      -14.9505423976
     7 OT CG       0.17E+00    0.2     0.00000213       -14.9505423977 -8.09E-09
     8 OT LS       0.21E+00    0.1                      -14.9505423979
     9 OT CG       0.21E+00    0.2     0.00000024       -14.9505423979 -1.87E-10

  *** SCF run converged in     9 steps ***


  Electronic density on regular grids:        -14.0000000000        0.0000000000
  Core density on regular grids:               13.9999999989       -0.0000000011
  Total charge density on r-space grids:       -0.0000000010
  Total charge density g-space grids:          -0.0000000010

  Overlap energy of the core charge distribution:               0.00000097842941
  Self energy of the core charge distribution:                -35.13285960674677
  Core Hamiltonian energy:                                     11.35360847391544
  Hartree energy:                                              14.46843406378088
  Exchange-correlation energy:                                 -5.63972630726771

  Total energy:                                               -14.95054239788876

  outer SCF iter =    1 RMS gradient =   0.24E-06 energy =        -14.9505423979
  outer SCF loop converged in   1 iterations or    9 steps


 ENERGY| Total FORCE_EVAL ( QS ) energy [a.u.]:              -14.950542397889375

 MD| ***************************************************************************
 MD| Step number                                                               2
 MD| Time [fs]                                                          1.000000
 MD| Conserved quantity [hartree]                            -0.149490125070E+02
 MD| ---------------------------------------------------------------------------
 MD|                                          Instantaneous             Averages
 MD| CPU time per MD step [s]                      6.314299             7.356945
 MD| Energy drift per atom [K]          -0.876642516314E-01  -0.438321258157E-01
 MD| Potential energy [hartree]         -0.149505423979E+02  -0.149505544552E+02
 MD| Kinetic energy [hartree]            0.143767131371E-02   0.145418095241E-02
 MD| Temperature [K]                              43.236205            43.732712
 MD| ***************************************************************************

 Number of electrons:                                                         14
 Number of occupied orbitals:                                                  7
 Number of molecular orbitals:                                                 7

 Number of orbital functions:                                                 56
 Number of independent orbital functions:                                     56

 Extrapolation method: ASPC


 SCF WAVEFUNCTION OPTIMIZATION

  ----------------------------------- OT ---------------------------------------
  Minimizer      : CG                  : conjugate gradient
  Preconditioner : FULL_ALL            : diagonalization, state selective
  Precond_solver : DEFAULT
  Line search    : 2PNT                : 2 energies, one gradient
  stepsize       :    0.15000000                  energy_gap     :    0.08000000
  eps_taylor     :   0.10000E-15                  max_taylor     :             4
  ----------------------------------- OT ---------------------------------------

  Step     Update method      Time    Convergence         Total energy    Change
  ------------------------------------------------------------------------------
     1 OT CG       0.15E+00    0.2     0.00010383       -14.9506385375 -1.50E+01
     2 OT LS       0.16E+00    0.1                      -14.9506388716
     3 OT CG       0.16E+00    0.2     0.00004359       -14.9506388725 -3.35E-07
     4 OT LS       0.15E+00    0.1                      -14.9506389285
     5 OT CG       0.15E+00    0.2     0.00000688       -14.9506389287 -5.62E-08
     6 OT LS       0.17E+00    0.1                      -14.9506389303
     7 OT CG       0.17E+00    0.2     0.00000104       -14.9506389303 -1.60E-09
     8 OT LS       0.18E+00    0.1                      -14.9506389303
     9 OT CG       0.18E+00    0.2     0.00000034       -14.9506389303 -3.80E-11

  *** SCF run converged in     9 steps ***


  Electronic density on regular grids:        -14.0000000000        0.0000000000
  Core density on regular grids:               13.9999999989       -0.0000000011
  Total charge density on r-space grids:       -0.0000000010
  Total charge density g-space grids:          -0.0000000010

  Overlap energy of the core charge distribution:               0.00000107580219
  Self energy of the core charge distribution:                -35.13285960674677
  Core Hamiltonian energy:                                     11.37204516509412
  Hartree energy:                                              14.45584590986805
  Exchange-correlation energy:                                 -5.64567147435078

  Total energy:                                               -14.95063893033319

  outer SCF iter =    1 RMS gradient =   0.34E-06 energy =        -14.9506389303
  outer SCF loop converged in   1 iterations or    9 steps


 ENERGY| Total FORCE_EVAL ( QS ) energy [a.u.]:              -14.950638930335460

 MD| ***************************************************************************
 MD| Step number                                                               3
 MD| Time [fs]                                                          1.500000
 MD| Conserved quantity [hartree]                            -0.149490172666E+02
 MD| ---------------------------------------------------------------------------
 MD|                                          Instantaneous             Averages
 MD| CPU time per MD step [s]                      2.881077             5.864989
 MD| Energy drift per atom [K]          -0.275534667819E+00  -0.121066306483E+00
 MD| Potential energy [hartree]         -0.149506389303E+02  -0.149505826136E+02
 MD| Kinetic energy [hartree]            0.152309016286E-02   0.147715068923E-02
 MD| Temperature [K]                              45.805072            44.423499
 MD| ***************************************************************************

 Number of electrons:                                                         14
 Number of occupied orbitals:                                                  7
 Number of molecular orbitals:                                                 7

 Number of orbital functions:                                                 56
 Number of independent orbital functions:                                     56

 Extrapolation method: ASPC


 SCF WAVEFUNCTION OPTIMIZATION

  ----------------------------------- OT ---------------------------------------
  Minimizer      : CG                  : conjugate gradient
  Preconditioner : FULL_ALL            : diagonalization, state selective
  Precond_solver : DEFAULT
  Line search    : 2PNT                : 2 energies, one gradient
  stepsize       :    0.15000000                  energy_gap     :    0.08000000
  eps_taylor     :   0.10000E-15                  max_taylor     :             4
  ----------------------------------- OT ---------------------------------------

  Step     Update method      Time    Convergence         Total energy    Change
  ------------------------------------------------------------------------------
     1 OT CG       0.15E+00    0.2     0.00006636       -14.9507823534 -1.50E+01
     2 OT LS       0.17E+00    0.1                      -14.9507824951
     3 OT CG       0.17E+00    0.2     0.00002801       -14.9507824964 -1.43E-07
     4 OT LS       0.15E+00    0.1                      -14.9507825186
     5 OT CG       0.15E+00    0.2     0.00000436       -14.9507825190 -2.26E-08
     6 OT LS       0.17E+00    0.1                      -14.9507825196
     7 OT CG       0.17E+00    0.2     0.00000071       -14.9507825196 -6.37E-10

  *** SCF run converged in     7 steps ***


  Electronic density on regular grids:        -14.0000000000        0.0000000000
  Core density on regular grids:               13.9999999989       -0.0000000011
  Total charge density on r-space grids:       -0.0000000010
  Total charge density g-space grids:          -0.0000000010

  Overlap energy of the core charge distribution:               0.00000121829610
  Self energy of the core charge distribution:                -35.13285960674677
  Core Hamiltonian energy:                                     11.39618820451333
  Hartree energy:                                              14.43936202341335
  Exchange-correlation energy:                                 -5.65347435910742

  Total energy:                                               -14.95078251963141

  outer SCF iter =    1 RMS gradient =   0.71E-06 energy =        -14.9507825196
  outer SCF loop converged in   1 iterations or    7 steps


 ENERGY| Total FORCE_EVAL ( QS ) energy [a.u.]:              -14.950782519647683

 MD| ***************************************************************************
 MD| Step number                                                               4
 MD| Time [fs]                                                          2.000000
 MD| Conserved quantity [hartree]                            -0.149490226250E+02
 MD| ---------------------------------------------------------------------------
 MD|                                          Instantaneous             Averages
 MD| CPU time per MD step [s]                      1.457188             4.763039
 MD| Energy drift per atom [K]          -0.487038652262E+00  -0.212559392928E+00
 MD| Potential energy [hartree]         -0.149507825196E+02  -0.149506325901E+02
 MD| Kinetic energy [hartree]            0.165451842829E-02   0.152149262399E-02
 MD| Temperature [K]                              49.757617            45.757028
 MD| ***************************************************************************

 Number of electrons:                                                         14
 Number of occupied orbitals:                                                  7
 Number of molecular orbitals:                                                 7

 Number of orbital functions:                                                 56
 Number of independent orbital functions:                                     56

 Extrapolation method: ASPC


 SCF WAVEFUNCTION OPTIMIZATION

  ----------------------------------- OT ---------------------------------------
  Minimizer      : CG                  : conjugate gradient
  Preconditioner : FULL_ALL            : diagonalization, state selective
  Precond_solver : DEFAULT
  Line search    : 2PNT                : 2 energies, one gradient
  stepsize       :    0.15000000                  energy_gap     :    0.08000000
  eps_taylor     :   0.10000E-15                  max_taylor     :             4
  ----------------------------------- OT ---------------------------------------

  Step     Update method      Time    Convergence         Total energy    Change
  ------------------------------------------------------------------------------
     1 OT CG       0.15E+00    0.2     0.00004806       -14.9508907618 -1.50E+01
     2 OT LS       0.18E+00    0.1                      -14.9508908396
     3 OT CG       0.18E+00    0.2     0.00002034       -14.9508908413 -7.95E-08
     4 OT LS       0.14E+00    0.1                      -14.9508908522
     5 OT CG       0.14E+00    0.2     0.00000291       -14.9508908529 -1.16E-08
     6 OT LS       0.17E+00    0.1                      -14.9508908531
     7 OT CG       0.17E+00    0.2     0.00000050       -14.9508908531 -2.83E-10

  *** SCF run converged in     7 steps ***


  Electronic density on regular grids:        -14.0000000000        0.0000000000
  Core density on regular grids:               13.9999999989       -0.0000000011
  Total charge density on r-space grids:       -0.0000000010
  Total charge density g-space grids:          -0.0000000010

  Overlap energy of the core charge distribution:               0.00000140455769
  Self energy of the core charge distribution:                -35.13285960674677
  Core Hamiltonian energy:                                     11.42436491895336
  Hartree energy:                                              14.42017912256522
  Exchange-correlation energy:                                 -5.66257669247270

  Total energy:                                               -14.95089085314320

  outer SCF iter =    1 RMS gradient =   0.50E-06 energy =        -14.9508908531
  outer SCF loop converged in   1 iterations or    7 steps


 ENERGY| Total FORCE_EVAL ( QS ) energy [a.u.]:              -14.950890853151119

 MD| ***************************************************************************
 MD| Step number                                                               5
 MD| Time [fs]                                                          2.500000
 MD| Conserved quantity [hartree]                            -0.149490268730E+02
 MD| ---------------------------------------------------------------------------
 MD|                                          Instantaneous             Averages
 MD| CPU time per MD step [s]                      1.327482             4.075927
 MD| Energy drift per atom [K]          -0.654714090771E+00  -0.300990332497E+00
 MD| Potential energy [hartree]         -0.149508908532E+02  -0.149506842427E+02
 MD| Kinetic energy [hartree]            0.175130582034E-02   0.156745526326E-02
 MD| Temperature [K]                              52.668379            47.139298
 MD| ***************************************************************************

 Number of electrons:                                                         14
 Number of occupied orbitals:                                                  7
 Number of molecular orbitals:                                                 7

 Number of orbital functions:                                                 56
 Number of independent orbital functions:                                     56

 Extrapolation method: ASPC


 SCF WAVEFUNCTION OPTIMIZATION

  ----------------------------------- OT ---------------------------------------
  Minimizer      : CG                  : conjugate gradient
  Preconditioner : FULL_ALL            : diagonalization, state selective
  Precond_solver : DEFAULT
  Line search    : 2PNT                : 2 energies, one gradient
  stepsize       :    0.15000000                  energy_gap     :    0.08000000
  eps_taylor     :   0.10000E-15                  max_taylor     :             4
  ----------------------------------- OT ---------------------------------------

  Step     Update method      Time    Convergence         Total energy    Change
  ------------------------------------------------------------------------------
     1 OT CG       0.15E+00    0.2     0.00004506       -14.9508997231 -1.50E+01
     2 OT LS       0.17E+00    0.1                      -14.9508997913
     3 OT CG       0.17E+00    0.2     0.00001956       -14.9508997927 -6.96E-08
     4 OT LS       0.15E+00    0.1                      -14.9508998032
     5 OT CG       0.15E+00    0.2     0.00000188       -14.9508998037 -1.09E-08
     6 OT LS       0.19E+00    0.1                      -14.9508998038
     7 OT CG       0.19E+00    0.2     0.00000035       -14.9508998038 -1.29E-10

  *** SCF run converged in     7 steps ***


  Electronic density on regular grids:        -14.0000000000        0.0000000000
  Core density on regular grids:               13.9999999989       -0.0000000011
  Total charge density on r-space grids:       -0.0000000010
  Total charge density g-space grids:          -0.0000000010

  Overlap energy of the core charge distribution:               0.00000162803902
  Self energy of the core charge distribution:                -35.13285960674677
  Core Hamiltonian energy:                                     11.45449781938960
  Hartree energy:                                              14.39975467557781
  Exchange-correlation energy:                                 -5.67229432003950

  Total energy:                                               -14.95089980377983

  outer SCF iter =    1 RMS gradient =   0.35E-06 energy =        -14.9508998038
  outer SCF loop converged in   1 iterations or    7 steps


 ENERGY| Total FORCE_EVAL ( QS ) energy [a.u.]:              -14.950899803784356

 MD| ***************************************************************************
 MD| Step number                                                               6
 MD| Time [fs]                                                          3.000000
 MD| Conserved quantity [hartree]                            -0.149490286195E+02
 MD| ---------------------------------------------------------------------------
 MD|                                          Instantaneous             Averages
 MD| CPU time per MD step [s]                      1.413293             3.632155
 MD| Energy drift per atom [K]          -0.723650809795E+00  -0.371433745380E+00
 MD| Potential energy [hartree]         -0.149508998038E+02  -0.149507201696E+02
 MD| Kinetic energy [hartree]            0.175097973184E-02   0.159804267469E-02
 MD| Temperature [K]                              52.658572            48.059177
 MD| ***************************************************************************

 Number of electrons:                                                         14
 Number of occupied orbitals:                                                  7
 Number of molecular orbitals:                                                 7

 Number of orbital functions:                                                 56
 Number of independent orbital functions:                                     56

 Extrapolation method: ASPC


 SCF WAVEFUNCTION OPTIMIZATION

  ----------------------------------- OT ---------------------------------------
  Minimizer      : CG                  : conjugate gradient
  Preconditioner : FULL_ALL            : diagonalization, state selective
  Precond_solver : DEFAULT
  Line search    : 2PNT                : 2 energies, one gradient
  stepsize       :    0.15000000                  energy_gap     :    0.08000000
  eps_taylor     :   0.10000E-15                  max_taylor     :             4
  ----------------------------------- OT ---------------------------------------

  Step     Update method      Time    Convergence         Total energy    Change
  ------------------------------------------------------------------------------
     1 OT CG       0.15E+00    0.3     0.00005214       -14.9507852512 -1.50E+01
     2 OT LS       0.16E+00    0.1                      -14.9507853383
     3 OT CG       0.16E+00    0.2     0.00002281       -14.9507853390 -8.79E-08
     4 OT LS       0.15E+00    0.1                      -14.9507853545
     5 OT CG       0.15E+00    0.2     0.00000176       -14.9507853546 -1.56E-08
     6 OT LS       0.20E+00    0.1                      -14.9507853547
     7 OT CG       0.20E+00    0.2     0.00000047       -14.9507853547 -1.23E-10

  *** SCF run converged in     7 steps ***


  Electronic density on regular grids:        -14.0000000000        0.0000000000
  Core density on regular grids:               13.9999999989       -0.0000000011
  Total charge density on r-space grids:       -0.0000000010
  Total charge density g-space grids:          -0.0000000010

  Overlap energy of the core charge distribution:               0.00000187474454
  Self energy of the core charge distribution:                -35.13285960674677
  Core Hamiltonian energy:                                     11.48419696701829
  Hartree energy:                                              14.37972677058114
  Exchange-correlation energy:                                 -5.68185136032259

  Total energy:                                               -14.95078535472539

  outer SCF iter =    1 RMS gradient =   0.47E-06 energy =        -14.9507853547
  outer SCF loop converged in   1 iterations or    7 steps


 ENERGY| Total FORCE_EVAL ( QS ) energy [a.u.]:              -14.950785354728689

 MD| ***************************************************************************
 MD| Step number                                                               7
 MD| Time [fs]                                                          3.500000
 MD| Conserved quantity [hartree]                            -0.149490271730E+02
 MD| ---------------------------------------------------------------------------
 MD|                                          Instantaneous             Averages
 MD| CPU time per MD step [s]                      1.616933             3.344266
 MD| Energy drift per atom [K]          -0.666557395000E+00  -0.413594266754E+00
 MD| Potential energy [hartree]         -0.149507853547E+02  -0.149507294817E+02
 MD| Kinetic energy [hartree]            0.163068235804E-02   0.160270548660E-02
 MD| Temperature [K]                              49.040776            48.199406
 MD| ***************************************************************************

 Number of electrons:                                                         14
 Number of occupied orbitals:                                                  7
 Number of molecular orbitals:                                                 7

 Number of orbital functions:                                                 56
 Number of independent orbital functions:                                     56

 Extrapolation method: ASPC


 SCF WAVEFUNCTION OPTIMIZATION

  ----------------------------------- OT ---------------------------------------
  Minimizer      : CG                  : conjugate gradient
  Preconditioner : FULL_ALL            : diagonalization, state selective
  Precond_solver : DEFAULT
  Line search    : 2PNT                : 2 energies, one gradient
  stepsize       :    0.15000000                  energy_gap     :    0.08000000
  eps_taylor     :   0.10000E-15                  max_taylor     :             4
  ----------------------------------- OT ---------------------------------------

  Step     Update method      Time    Convergence         Total energy    Change
  ------------------------------------------------------------------------------
     1 OT CG       0.15E+00    0.2     0.00006577       -14.9505736166 -1.50E+01
     2 OT LS       0.16E+00    0.1                      -14.9505737493
     3 OT CG       0.16E+00    0.2     0.00002800       -14.9505737496 -1.33E-07
     4 OT LS       0.16E+00    0.1                      -14.9505737739
     5 OT CG       0.16E+00    0.2     0.00000260       -14.9505737739 -2.44E-08
     6 OT LS       0.19E+00    0.1                      -14.9505737742
     7 OT CG       0.19E+00    0.2     0.00000059       -14.9505737742 -2.54E-10

  *** SCF run converged in     7 steps ***


  Electronic density on regular grids:        -14.0000000000        0.0000000000
  Core density on regular grids:               13.9999999989       -0.0000000011
  Total charge density on r-space grids:       -0.0000000010
  Total charge density g-space grids:          -0.0000000010

  Overlap energy of the core charge distribution:               0.00000212264813
  Self energy of the core charge distribution:                -35.13285960674677
  Core Hamiltonian energy:                                     11.51092027662576
  Hartree energy:                                              14.36179951161359
  Exchange-correlation energy:                                 -5.69043607833469

  Total energy:                                               -14.95057377419398

  outer SCF iter =    1 RMS gradient =   0.59E-06 energy =        -14.9505737742
  outer SCF loop converged in   1 iterations or    7 steps


 ENERGY| Total FORCE_EVAL ( QS ) energy [a.u.]:              -14.950573774202759

 MD| ***************************************************************************
 MD| Step number                                                               8
 MD| Time [fs]                                                          4.000000
 MD| Conserved quantity [hartree]                            -0.149490228497E+02
 MD| ---------------------------------------------------------------------------
 MD|                                          Instantaneous             Averages
 MD| CPU time per MD step [s]                      1.405706             3.101946
 MD| Energy drift per atom [K]          -0.495906642126E+00  -0.423883313676E+00
 MD| Potential energy [hartree]         -0.149505737742E+02  -0.149507100183E+02
 MD| Kinetic energy [hartree]            0.141685057500E-02   0.157947362265E-02
 MD| Temperature [K]                              42.610047            47.500736
 MD| ***************************************************************************

 Number of electrons:                                                         14
 Number of occupied orbitals:                                                  7
 Number of molecular orbitals:                                                 7

 Number of orbital functions:                                                 56
 Number of independent orbital functions:                                     56

 Extrapolation method: ASPC


 SCF WAVEFUNCTION OPTIMIZATION

  ----------------------------------- OT ---------------------------------------
  Minimizer      : CG                  : conjugate gradient
  Preconditioner : FULL_ALL            : diagonalization, state selective
  Precond_solver : DEFAULT
  Line search    : 2PNT                : 2 energies, one gradient
  stepsize       :    0.15000000                  energy_gap     :    0.08000000
  eps_taylor     :   0.10000E-15                  max_taylor     :             4
  ----------------------------------- OT ---------------------------------------

  Step     Update method      Time    Convergence         Total energy    Change
  ------------------------------------------------------------------------------
     1 OT CG       0.15E+00    0.2     0.00008003       -14.9503357340 -1.50E+01
     2 OT LS       0.15E+00    0.1                      -14.9503359271
     3 OT CG       0.15E+00    0.2     0.00003332       -14.9503359272 -1.93E-07
     4 OT LS       0.16E+00    0.1                      -14.9503359621
     5 OT CG       0.16E+00    0.2     0.00000363       -14.9503359621 -3.49E-08
     6 OT LS       0.19E+00    0.1                      -14.9503359626
     7 OT CG       0.19E+00    0.2     0.00000069       -14.9503359626 -4.80E-10

  *** SCF run converged in     7 steps ***


  Electronic density on regular grids:        -14.0000000000        0.0000000000
  Core density on regular grids:               13.9999999989       -0.0000000011
  Total charge density on r-space grids:       -0.0000000010
  Total charge density g-space grids:          -0.0000000010

  Overlap energy of the core charge distribution:               0.00000234358783
  Self energy of the core charge distribution:                -35.13285960674677
  Core Hamiltonian energy:                                     11.53220005389970
  Hartree energy:                                              14.34759403711939
  Exchange-correlation energy:                                 -5.69727279045646

  Total energy:                                               -14.95033596259631

  outer SCF iter =    1 RMS gradient =   0.69E-06 energy =        -14.9503359626
  outer SCF loop converged in   1 iterations or    7 steps


 ENERGY| Total FORCE_EVAL ( QS ) energy [a.u.]:              -14.950335962612403

 MD| ***************************************************************************
 MD| Step number                                                               9
 MD| Time [fs]                                                          4.500000
 MD| Conserved quantity [hartree]                            -0.149490169435E+02
 MD| ---------------------------------------------------------------------------
 MD|                                          Instantaneous             Averages
 MD| CPU time per MD step [s]                      1.418833             2.914933
 MD| Energy drift per atom [K]          -0.262778335084E+00  -0.405982760499E+00
 MD| Potential energy [hartree]         -0.149503359626E+02  -0.149506684565E+02
 MD| Kinetic energy [hartree]            0.117937508403E-02   0.153501822947E-02
 MD| Temperature [K]                              35.468262            46.163794
 MD| ***************************************************************************

 Number of electrons:                                                         14
 Number of occupied orbitals:                                                  7
 Number of molecular orbitals:                                                 7

 Number of orbital functions:                                                 56
 Number of independent orbital functions:                                     56

 Extrapolation method: ASPC


 SCF WAVEFUNCTION OPTIMIZATION

  ----------------------------------- OT ---------------------------------------
  Minimizer      : CG                  : conjugate gradient
  Preconditioner : FULL_ALL            : diagonalization, state selective
  Precond_solver : DEFAULT
  Line search    : 2PNT                : 2 energies, one gradient
  stepsize       :    0.15000000                  energy_gap     :    0.08000000
  eps_taylor     :   0.10000E-15                  max_taylor     :             4
  ----------------------------------- OT ---------------------------------------

  Step     Update method      Time    Convergence         Total energy    Change
  ------------------------------------------------------------------------------
     1 OT CG       0.15E+00    0.2     0.00009178       -14.9501663409 -1.50E+01
     2 OT LS       0.15E+00    0.1                      -14.9501665925
     3 OT CG       0.15E+00    0.2     0.00003766       -14.9501665925 -2.52E-07
     4 OT LS       0.16E+00    0.1                      -14.9501666372
     5 OT CG       0.16E+00    0.2     0.00000448       -14.9501666374 -4.48E-08
     6 OT LS       0.18E+00    0.1                      -14.9501666381
     7 OT CG       0.18E+00    0.2     0.00000078       -14.9501666381 -7.20E-10

  *** SCF run converged in     7 steps ***


  Electronic density on regular grids:        -14.0000000000        0.0000000000
  Core density on regular grids:               13.9999999989       -0.0000000011
  Total charge density on r-space grids:       -0.0000000010
  Total charge density g-space grids:          -0.0000000010

  Overlap energy of the core charge distribution:               0.00000250757032
  Self energy of the core charge distribution:                -35.13285960674677
  Core Hamiltonian energy:                                     11.54591151436060
  Hartree energy:                                              14.33848016640334
  Exchange-correlation energy:                                 -5.70170121967693

  Total energy:                                               -14.95016663808944

  outer SCF iter =    1 RMS gradient =   0.78E-06 energy =        -14.9501666381
  outer SCF loop converged in   1 iterations or    7 steps


 ENERGY| Total FORCE_EVAL ( QS ) energy [a.u.]:              -14.950166638112430

 MD| ***************************************************************************
 MD| Step number                                                              10
 MD| Time [fs]                                                          5.000000
 MD| Conserved quantity [hartree]                            -0.149490113861E+02
 MD| ---------------------------------------------------------------------------
 MD|                                          Instantaneous             Averages
 MD| CPU time per MD step [s]                      1.427562             2.766196
 MD| Energy drift per atom [K]          -0.434167837115E-01  -0.369726162820E+00
 MD| Potential energy [hartree]         -0.149501666381E+02  -0.149506182747E+02
 MD| Kinetic energy [hartree]            0.101096476353E-02   0.148261288288E-02
 MD| Temperature [K]                              30.403528            44.587768
 MD| ***************************************************************************

 Number of electrons:                                                         14
 Number of occupied orbitals:                                                  7
 Number of molecular orbitals:                                                 7

 Number of orbital functions:                                                 56
 Number of independent orbital functions:                                     56

 Extrapolation method: ASPC


 SCF WAVEFUNCTION OPTIMIZATION

  ----------------------------------- OT ---------------------------------------
  Minimizer      : CG                  : conjugate gradient
  Preconditioner : FULL_ALL            : diagonalization, state selective
  Precond_solver : DEFAULT
  Line search    : 2PNT                : 2 energies, one gradient
  stepsize       :    0.15000000                  energy_gap     :    0.08000000
  eps_taylor     :   0.10000E-15                  max_taylor     :             4
  ----------------------------------- OT ---------------------------------------

  Step     Update method      Time    Convergence         Total energy    Change
  ------------------------------------------------------------------------------
     1 OT CG       0.15E+00    0.2     0.00009802       -14.9501534735 -1.50E+01
     2 OT LS       0.15E+00    0.1                      -14.9501537607
     3 OT CG       0.15E+00    0.2     0.00004003       -14.9501537608 -2.87E-07
     4 OT LS       0.16E+00    0.1                      -14.9501538112
     5 OT CG       0.16E+00    0.2     0.00000501       -14.9501538113 -5.05E-08
     6 OT LS       0.18E+00    0.1                      -14.9501538122
     7 OT CG       0.18E+00    0.2     0.00000085       -14.9501538122 -8.91E-10

  *** SCF run converged in     7 steps ***


  Electronic density on regular grids:        -14.0000000000        0.0000000000
  Core density on regular grids:               13.9999999989       -0.0000000011
  Total charge density on r-space grids:       -0.0000000010
  Total charge density g-space grids:          -0.0000000010

  Overlap energy of the core charge distribution:               0.00000258869804
  Self energy of the core charge distribution:                -35.13285960674677
  Core Hamiltonian energy:                                     11.55051906551912
  Hartree energy:                                              14.33543310258091
  Exchange-correlation energy:                                 -5.70324896225478

  Total energy:                                               -14.95015381220348

  outer SCF iter =    1 RMS gradient =   0.85E-06 energy =        -14.9501538122
  outer SCF loop converged in   1 iterations or    7 steps


 ENERGY| Total FORCE_EVAL ( QS ) energy [a.u.]:              -14.950153812231402

 MD| ***************************************************************************
 MD| Step number                                                              11
 MD| Time [fs]                                                          5.500000
 MD| Conserved quantity [hartree]                            -0.149490081653E+02
 MD| ---------------------------------------------------------------------------
 MD|                                          Instantaneous             Averages
 MD| CPU time per MD step [s]                      1.413791             2.643250
 MD| Energy drift per atom [K]           0.837117039070E-01  -0.328504538572E+00
 MD| Potential energy [hartree]         -0.149501538122E+02  -0.149505760508E+02
 MD| Kinetic energy [hartree]            0.997174267117E-03   0.143848209963E-02
 MD| Temperature [K]                              29.988796            43.260588
 MD| ***************************************************************************

 Number of electrons:                                                         14
 Number of occupied orbitals:                                                  7
 Number of molecular orbitals:                                                 7

 Number of orbital functions:                                                 56
 Number of independent orbital functions:                                     56

 Extrapolation method: ASPC


 SCF WAVEFUNCTION OPTIMIZATION

  ----------------------------------- OT ---------------------------------------
  Minimizer      : CG                  : conjugate gradient
  Preconditioner : FULL_ALL            : diagonalization, state selective
  Precond_solver : DEFAULT
  Line search    : 2PNT                : 2 energies, one gradient
  stepsize       :    0.15000000                  energy_gap     :    0.08000000
  eps_taylor     :   0.10000E-15                  max_taylor     :             4
  ----------------------------------- OT ---------------------------------------

  Step     Update method      Time    Convergence         Total energy    Change
  ------------------------------------------------------------------------------
     1 OT CG       0.15E+00    0.2     0.00009789       -14.9503474524 -1.50E+01
     2 OT LS       0.15E+00    0.1                      -14.9503477396
     3 OT CG       0.15E+00    0.2     0.00003996       -14.9503477397 -2.87E-07
     4 OT LS       0.16E+00    0.1                      -14.9503477898
     5 OT CG       0.16E+00    0.2     0.00000512       -14.9503477899 -5.02E-08
     6 OT LS       0.18E+00    0.1                      -14.9503477908
     7 OT CG       0.18E+00    0.2     0.00000089       -14.9503477908 -9.23E-10

  *** SCF run converged in     7 steps ***


  Electronic density on regular grids:        -14.0000000000        0.0000000000
  Core density on regular grids:               13.9999999989       -0.0000000011
  Total charge density on r-space grids:       -0.0000000010
  Total charge density g-space grids:          -0.0000000010

  Overlap energy of the core charge distribution:               0.00000257154340
  Self energy of the core charge distribution:                -35.13285960674677
  Core Hamiltonian energy:                                     11.54528277979284
  Hartree energy:                                              14.33891675268481
  Exchange-correlation energy:                                 -5.70169028808761

  Total energy:                                               -14.95034779081334

  outer SCF iter =    1 RMS gradient =   0.89E-06 energy =        -14.9503477908
  outer SCF loop converged in   1 iterations or    7 steps


 ENERGY| Total FORCE_EVAL ( QS ) energy [a.u.]:              -14.950347790842677

 MD| ***************************************************************************
 MD| Step number                                                              12
 MD| Time [fs]                                                          6.000000
 MD| Conserved quantity [hartree]                            -0.149490086380E+02
 MD| ---------------------------------------------------------------------------
 MD|                                          Instantaneous             Averages
 MD| CPU time per MD step [s]                      1.407940             2.540308
 MD| Energy drift per atom [K]           0.650557754303E-01  -0.295707845739E+00
 MD| Potential energy [hartree]         -0.149503477908E+02  -0.149505570292E+02
 MD| Kinetic energy [hartree]            0.118620896156E-02   0.141745933812E-02
 MD| Temperature [K]                              35.673783            42.628355
 MD| ***************************************************************************

 Number of electrons:                                                         14
 Number of occupied orbitals:                                                  7
 Number of molecular orbitals:                                                 7

 Number of orbital functions:                                                 56
 Number of independent orbital functions:                                     56

 Extrapolation method: ASPC


 SCF WAVEFUNCTION OPTIMIZATION

  ----------------------------------- OT ---------------------------------------
  Minimizer      : CG                  : conjugate gradient
  Preconditioner : FULL_ALL            : diagonalization, state selective
  Precond_solver : DEFAULT
  Line search    : 2PNT                : 2 energies, one gradient
  stepsize       :    0.15000000                  energy_gap     :    0.08000000
  eps_taylor     :   0.10000E-15                  max_taylor     :             4
  ----------------------------------- OT ---------------------------------------

  Step     Update method      Time    Convergence         Total energy    Change
  ------------------------------------------------------------------------------
     1 OT CG       0.15E+00    0.2     0.00009088       -14.9507401273 -1.50E+01
     2 OT LS       0.15E+00    0.1                      -14.9507403759
     3 OT CG       0.15E+00    0.2     0.00003726       -14.9507403760 -2.49E-07
     4 OT LS       0.16E+00    0.1                      -14.9507404194
     5 OT CG       0.16E+00    0.2     0.00000478       -14.9507404195 -4.35E-08
     6 OT LS       0.18E+00    0.1                      -14.9507404203
     7 OT CG       0.18E+00    0.3     0.00000086       -14.9507404203 -7.98E-10

  *** SCF run converged in     7 steps ***


  Electronic density on regular grids:        -14.0000000000        0.0000000000
  Core density on regular grids:               13.9999999989       -0.0000000011
  Total charge density on r-space grids:       -0.0000000010
  Total charge density g-space grids:          -0.0000000010

  Overlap energy of the core charge distribution:               0.00000245621776
  Self energy of the core charge distribution:                -35.13285960674677
  Core Hamiltonian energy:                                     11.53037224963932
  Hartree energy:                                              14.34882222384647
  Exchange-correlation energy:                                 -5.69707774326093

  Total energy:                                               -14.95074042030414

  outer SCF iter =    1 RMS gradient =   0.86E-06 energy =        -14.9507404203
  outer SCF loop converged in   1 iterations or    7 steps


 ENERGY| Total FORCE_EVAL ( QS ) energy [a.u.]:              -14.950740420330735

 MD| ***************************************************************************
 MD| Step number                                                              13
 MD| Time [fs]                                                          6.500000
 MD| Conserved quantity [hartree]                            -0.149490129608E+02
 MD| ---------------------------------------------------------------------------
 MD|                                          Instantaneous             Averages
 MD| CPU time per MD step [s]                      1.589742             2.467187
 MD| Energy drift per atom [K]          -0.105575267400E+00  -0.281082262789E+00
 MD| Potential energy [hartree]         -0.149507404203E+02  -0.149505711362E+02
 MD| Kinetic energy [hartree]            0.156894007123E-02   0.142911170221E-02
 MD| Temperature [K]                              47.183952            42.978785
 MD| ***************************************************************************

 Number of electrons:                                                         14
 Number of occupied orbitals:                                                  7
 Number of molecular orbitals:                                                 7

 Number of orbital functions:                                                 56
 Number of independent orbital functions:                                     56

 Extrapolation method: ASPC


 SCF WAVEFUNCTION OPTIMIZATION

  ----------------------------------- OT ---------------------------------------
  Minimizer      : CG                  : conjugate gradient
  Preconditioner : FULL_ALL            : diagonalization, state selective
  Precond_solver : DEFAULT
  Line search    : 2PNT                : 2 energies, one gradient
  stepsize       :    0.15000000                  energy_gap     :    0.08000000
  eps_taylor     :   0.10000E-15                  max_taylor     :             4
  ----------------------------------- OT ---------------------------------------

  Step     Update method      Time    Convergence         Total energy    Change
  ------------------------------------------------------------------------------
     1 OT CG       0.15E+00    0.2     0.00007781       -14.9512629546 -1.50E+01
     2 OT LS       0.15E+00    0.1                      -14.9512631379
     3 OT CG       0.15E+00    0.3     0.00003217       -14.9512631381 -1.83E-07
     4 OT LS       0.16E+00    0.1                      -14.9512631704
     5 OT CG       0.16E+00    0.3     0.00000403       -14.9512631704 -3.23E-08
     6 OT LS       0.18E+00    0.1                      -14.9512631710
     7 OT CG       0.18E+00    0.2     0.00000078       -14.9512631710 -5.61E-10

  *** SCF run converged in     7 steps ***


  Electronic density on regular grids:        -14.0000000000        0.0000000000
  Core density on regular grids:               13.9999999989       -0.0000000011
  Total charge density on r-space grids:       -0.0000000010
  Total charge density g-space grids:          -0.0000000010

  Overlap energy of the core charge distribution:               0.00000225974671
  Self energy of the core charge distribution:                -35.13285960674677
  Core Hamiltonian energy:                                     11.50686030158407
  Hartree energy:                                              14.36447345010130
  Exchange-correlation energy:                                 -5.68973957565874

  Total energy:                                               -14.95126317097343

  outer SCF iter =    1 RMS gradient =   0.78E-06 energy =        -14.9512631710
  outer SCF loop converged in   1 iterations or    7 steps


 ENERGY| Total FORCE_EVAL ( QS ) energy [a.u.]:              -14.951263170993904

 MD| ***************************************************************************
 MD| Step number                                                              14
 MD| Time [fs]                                                          7.000000
 MD| Conserved quantity [hartree]                            -0.149490199262E+02
 MD| ---------------------------------------------------------------------------
 MD|                                          Instantaneous             Averages
 MD| CPU time per MD step [s]                      1.772403             2.417560
 MD| Energy drift per atom [K]          -0.380513492840E+00  -0.288184493507E+00
 MD| Potential energy [hartree]         -0.149512631710E+02  -0.149506205672E+02
 MD| Kinetic energy [hartree]            0.207735010513E-02   0.147541444527E-02
 MD| Temperature [K]                              62.473762            44.371284
 MD| ***************************************************************************

 Number of electrons:                                                         14
 Number of occupied orbitals:                                                  7
 Number of molecular orbitals:                                                 7

 Number of orbital functions:                                                 56
 Number of independent orbital functions:                                     56

 Extrapolation method: ASPC


 SCF WAVEFUNCTION OPTIMIZATION

  ----------------------------------- OT ---------------------------------------
  Minimizer      : CG                  : conjugate gradient
  Preconditioner : FULL_ALL            : diagonalization, state selective
  Precond_solver : DEFAULT
  Line search    : 2PNT                : 2 energies, one gradient
  stepsize       :    0.15000000                  energy_gap     :    0.08000000
  eps_taylor     :   0.10000E-15                  max_taylor     :             4
  ----------------------------------- OT ---------------------------------------

  Step     Update method      Time    Convergence         Total energy    Change
  ------------------------------------------------------------------------------
     1 OT CG       0.15E+00    0.2     0.00006090       -14.9518062382 -1.50E+01
     2 OT LS       0.16E+00    0.1                      -14.9518063519
     3 OT CG       0.16E+00    0.2     0.00002557       -14.9518063521 -1.14E-07
     4 OT LS       0.16E+00    0.1                      -14.9518063724
     5 OT CG       0.16E+00    0.2     0.00000296       -14.9518063724 -2.03E-08
     6 OT LS       0.18E+00    0.1                      -14.9518063727
     7 OT CG       0.18E+00    0.2     0.00000065       -14.9518063727 -3.01E-10

  *** SCF run converged in     7 steps ***


  Electronic density on regular grids:        -14.0000000000        0.0000000000
  Core density on regular grids:               13.9999999989       -0.0000000011
  Total charge density on r-space grids:       -0.0000000010
  Total charge density g-space grids:          -0.0000000010

  Overlap energy of the core charge distribution:               0.00000201209354
  Self energy of the core charge distribution:                -35.13285960674677
  Core Hamiltonian energy:                                     11.47659319870125
  Hartree energy:                                              14.38470049760489
  Exchange-correlation energy:                                 -5.68024247436873

  Total energy:                                               -14.95180637271582

  outer SCF iter =    1 RMS gradient =   0.65E-06 energy =        -14.9518063727
  outer SCF loop converged in   1 iterations or    7 steps


 ENERGY| Total FORCE_EVAL ( QS ) energy [a.u.]:              -14.951806372728871

 MD| ***************************************************************************
 MD| Step number                                                              15
 MD| Time [fs]                                                          7.500000
 MD| Conserved quantity [hartree]                            -0.149490273362E+02
 MD| ---------------------------------------------------------------------------
 MD|                                          Instantaneous             Averages
 MD| CPU time per MD step [s]                      1.746295             2.372809
 MD| Energy drift per atom [K]          -0.672999875391E+00  -0.313838852300E+00
 MD| Potential energy [hartree]         -0.149518063727E+02  -0.149506996209E+02
 MD| Kinetic energy [hartree]            0.260354003932E-02   0.155062281821E-02
 MD| Temperature [K]                              78.298280            46.633083
 MD| ***************************************************************************

 Number of electrons:                                                         14
 Number of occupied orbitals:                                                  7
 Number of molecular orbitals:                                                 7

 Number of orbital functions:                                                 56
 Number of independent orbital functions:                                     56

 Extrapolation method: ASPC


 SCF WAVEFUNCTION OPTIMIZATION

  ----------------------------------- OT ---------------------------------------
  Minimizer      : CG                  : conjugate gradient
  Preconditioner : FULL_ALL            : diagonalization, state selective
  Precond_solver : DEFAULT
  Line search    : 2PNT                : 2 energies, one gradient
  stepsize       :    0.15000000                  energy_gap     :    0.08000000
  eps_taylor     :   0.10000E-15                  max_taylor     :             4
  ----------------------------------- OT ---------------------------------------

  Step     Update method      Time    Convergence         Total energy    Change
  ------------------------------------------------------------------------------
     1 OT CG       0.15E+00    0.2     0.00004477       -14.9522534431 -1.50E+01
     2 OT LS       0.16E+00    0.1                      -14.9522535063
     3 OT CG       0.16E+00    0.2     0.00001927       -14.9522535066 -6.35E-08
     4 OT LS       0.16E+00    0.1                      -14.9522535179
     5 OT CG       0.16E+00    0.2     0.00000184       -14.9522535180 -1.13E-08
     6 OT LS       0.18E+00    0.1                      -14.9522535181
     7 OT CG       0.18E+00    0.3     0.00000046       -14.9522535181 -1.19E-10

  *** SCF run converged in     7 steps ***


  Electronic density on regular grids:        -14.0000000000        0.0000000000
  Core density on regular grids:               13.9999999989       -0.0000000011
  Total charge density on r-space grids:       -0.0000000010
  Total charge density g-space grids:          -0.0000000010

  Overlap energy of the core charge distribution:               0.00000174788450
  Self energy of the core charge distribution:                -35.13285960674677
  Core Hamiltonian energy:                                     11.44196204976471
  Hartree energy:                                              14.40796838433586
  Exchange-correlation energy:                                 -5.66932609331860

  Total energy:                                               -14.95225351808030

  outer SCF iter =    1 RMS gradient =   0.46E-06 energy =        -14.9522535181
  outer SCF loop converged in   1 iterations or    7 steps


 ENERGY| Total FORCE_EVAL ( QS ) energy [a.u.]:              -14.952253518086813

 MD| ***************************************************************************
 MD| Step number                                                              16
 MD| Time [fs]                                                          8.000000
 MD| Conserved quantity [hartree]                            -0.149490328413E+02
 MD| ---------------------------------------------------------------------------
 MD|                                          Instantaneous             Averages
 MD| CPU time per MD step [s]                      1.771828             2.335248
 MD| Energy drift per atom [K]          -0.890296621773E+00  -0.349867462892E+00
 MD| Potential energy [hartree]         -0.149522535181E+02  -0.149507967395E+02
 MD| Kinetic energy [hartree]            0.303328592743E-02   0.164328926254E-02
 MD| Temperature [K]                              91.222361            49.419913
 MD| ***************************************************************************

 Number of electrons:                                                         14
 Number of occupied orbitals:                                                  7
 Number of molecular orbitals:                                                 7

 Number of orbital functions:                                                 56
 Number of independent orbital functions:                                     56

 Extrapolation method: ASPC


 SCF WAVEFUNCTION OPTIMIZATION

  ----------------------------------- OT ---------------------------------------
  Minimizer      : CG                  : conjugate gradient
  Preconditioner : FULL_ALL            : diagonalization, state selective
  Precond_solver : DEFAULT
  Line search    : 2PNT                : 2 energies, one gradient
  stepsize       :    0.15000000                  energy_gap     :    0.08000000
  eps_taylor     :   0.10000E-15                  max_taylor     :             4
  ----------------------------------- OT ---------------------------------------

[...]
  Total charge density on r-space grids:       -0.0000000010
  Total charge density g-space grids:          -0.0000000010

  Overlap energy of the core charge distribution:               0.00000152184365
  Self energy of the core charge distribution:                -35.13285960674677
  Core Hamiltonian energy:                                     11.35827670503166
  Hartree energy:                                              14.46695178810464
  Exchange-correlation energy:                                 -5.64454102026265

  Total energy:                                               -14.95217061202947

  outer SCF iter =    1 RMS gradient =   0.21E-06 energy =        -14.9521706120
  outer SCF loop converged in   1 iterations or    7 steps


 ENERGY| Total FORCE_EVAL ( QS ) energy [a.u.]:              -14.952170612031134

 MD| ***************************************************************************
 MD| Step number                                                            1000
 MD| Time [fs]                                                        500.000000
 MD| Conserved quantity [hartree]                            -0.149490347490E+02
 MD| ---------------------------------------------------------------------------
 MD|                                          Instantaneous             Averages
 MD| CPU time per MD step [s]                      1.573982             1.671181
 MD| Energy drift per atom [K]          -0.965594389382E+00  -0.643122170731E+00
 MD| Potential energy [hartree]         -0.149521706120E+02  -0.149518497317E+02
 MD| Kinetic energy [hartree]            0.169188644405E-02   0.148502780720E-02
 MD| Temperature [K]                              50.881414            44.660394
 MD| ***************************************************************************

 -------------------------------------------------------------------------------
 -                                                                             -
 -                                DBCSR STATISTICS                             -
 -                                                                             -
 -------------------------------------------------------------------------------
 COUNTER                                    TOTAL       BLAS       SMM       ACC
 flops     7 x     7 x     7              2908640       0.0%    100.0%      0.0%
 flops     5 x    13 x     7             49058100       0.0%    100.0%      0.0%
 flops    13 x     5 x     7             49058100       0.0%    100.0%      0.0%
 flops     7 x     7 x    13             50858080       0.0%    100.0%      0.0%
 flops     7 x     7 x     5             58682400       0.0%    100.0%      0.0%
 flops    13 x    13 x     7             63775530       0.0%    100.0%      0.0%
 flops     5 x     5 x     7             66039750       0.0%    100.0%      0.0%
 flops    26 x     7 x     7             68650764       0.0%    100.0%      0.0%
 flops    10 x     7 x     7             79212420       0.0%    100.0%      0.0%
 flops    26 x     7 x    13             94507504       0.0%    100.0%      0.0%
 flops    26 x     7 x     5            109047120       0.0%    100.0%      0.0%
 flops    10 x     7 x    13            109047120       0.0%    100.0%      0.0%
 flops    10 x     7 x     5            125823600       0.0%    100.0%      0.0%
 flops    13 x     7 x    13            207961936       0.0%    100.0%      0.0%
 flops    13 x     7 x     5            239956080       0.0%    100.0%      0.0%
 flops     5 x     7 x    13            239956080       0.0%    100.0%      0.0%
 flops     5 x     7 x     5            276872400       0.0%    100.0%      0.0%
 flops inhomo. stacks                           0       0.0%      0.0%      0.0%
 flops total                         1.891416E+09       0.0%    100.0%      0.0%
 flops max/rank                    896.348054E+06       0.0%    100.0%      0.0%
 matmuls inhomo. stacks                         0       0.0%      0.0%      0.0%
 matmuls total                            2321040       0.0%    100.0%      0.0%
 number of processed stacks               1510052       0.0%    100.0%      0.0%
 average stack size                                     0.0       1.5       0.0
 marketing flops                     2.064078E+09
 -------------------------------------------------------------------------------
 # multiplications                          93089
 max memory usage/rank             177.770496E+06
 # max total images/rank                        3
 # max 3D layers                                1
 # MPI messages exchanged                42448584
 MPI messages size (bytes):
  total size                         5.502012E+09
  min size                           0.000000E+00
  max size                           2.704000E+03
  average size                     129.615906E+00
 MPI breakdown and total messages size (bytes):
             size <=      128            34295465                        0
       128 < size <=     8192             8153119               5503362088
      8192 < size <=    32768                   0                        0
     32768 < size <=   131072                   0                        0
    131072 < size <=  4194304                   0                        0
   4194304 < size <= 16777216                   0                        0
  16777216 < size                               0                        0
 -------------------------------------------------------------------------------

 *** WARNING in dbcsr_mm.F:294 :: Using a non-square number of MPI ranks ***
 *** might lead to poor performance. Used ranks: 24 Suggested: 25 49     ***

 -------------------------------------------------------------------------------
 -                                                                             -
 -                      DBCSR MESSAGE PASSING PERFORMANCE                      -
 -                                                                             -
 -------------------------------------------------------------------------------
 ROUTINE             CALLS      AVE VOLUME [Bytes]
 MP_Bcast               18                     12.
 MP_Allreduce       452486                      8.
 MP_Alltoall        563786                   1694.
 MP_ISend          3905734                    219.
 MP_IRecv          3905734                    144.
 -------------------------------------------------------------------------------

 -------------------------------------------------------------------------------
 -                                                                             -
 -                                GRID STATISTICS                              -
 -                                                                             -
 -------------------------------------------------------------------------------
 LP    KERNEL             BACKEND                              COUNT     PERCENT
 2     collocate ortho    REF                                5453478      35.42%
 3     collocate ortho    REF                                3038136      19.73%
 2     integrate ortho    REF                                2726739      17.71%
 3     integrate ortho    REF                                2202847      14.31%
 4     integrate ortho    REF                                 753127       4.89%
 4     collocate ortho    REF                                 744454       4.84%
 0     collocate general  REF                                 192192       1.25%
 1     integrate general  REF                                 192192       1.25%
 5     integrate ortho    REF                                  93328       0.61%
 -------------------------------------------------------------------------------

 MEMORY| Estimated peak process memory [MiB]                                 170

 -------------------------------------------------------------------------------
 -                                                                             -
 -                         MESSAGE PASSING PERFORMANCE                         -
 -                                                                             -
 -------------------------------------------------------------------------------

 ROUTINE             CALLS      AVE VOLUME [Bytes]
 MP_Group                4
 MP_Bcast            75938                   5767.
 MP_Allreduce       168595                     47.
 MP_Sync              6088
 MP_Alltoall        135800                2790232.
 MP_ISendRecv       895413                  53808.
 MP_Wait           1404699
 MP_comm_split        3042
 MP_ISend           449370                 171620.
 MP_IRecv           449370                 171447.
 MP_Recv              3006                    896.
 -------------------------------------------------------------------------------


 -------------------------------------------------------------------------------
 -                                                                             -
 -                           R E F E R E N C E S                               -
 -                                                                             -
 -------------------------------------------------------------------------------
 
 CP2K version 8.2, the CP2K developers group (2021).
 CP2K is freely available from https://www.cp2k.org/ .

 Kuehne,Thomas D.; Iannuzzi,Marcella; Del Ben,Mauro;
 Rybkin,Vladimir V.; Seewald,Patrick; Stein,Frederick; Laino,Teodoro;
 Khaliullin,Rustam Z.; Schuett,Ole; Schiffmann,Florian; Golze,Dorothea;
 Wilhelm,Jan; Chulkov,Sergey; Bani-Hashemian,Mohammad Hossein;
 Weber,Valery; Borstnik,Urban; Taillefumier,Mathieu;
 Jakobovits,Alice Shoshana; Lazzaro,Alfio; Pabst,Hans; Mueller,Tiziano;
 Schade,Robert; Guidon,Manuel; Andermatt,Samuel; Holmberg,Nico;
 Schenter,Gregory K.; Hehn,Anna; Bussy,Augustin; Belleflamme,Fabian;
 Tabacchi,Gloria; Gloess,Andreas; Lass,Michael; Bethune,Iain;
 Mundy,Christopher J.; Plessl,Christian; Watkins,Matt;
 VandeVondele,Joost; Krack,Matthias; Hutter,Juerg. 
 The Journal of Chemical Physics, 152 (19), (2020). 
 CP2K: An electronic structure and molecular dynamics software package -
 Quickstep: Efficient and accurate electronic structure calculations.
 https://doi.org/10.1063/5.0007045

 Schuett, Ole; Messmer, Peter; Hutter, Juerg; VandeVondele, Joost. 
 Electronic Structure Calculations on Graphics Processing Units, John
 Wiley & Sons, Ltd, 173-190 (2016). 
 GPU-Accelerated Sparse Matrix-Matrix Multiplication for
 Linear Scaling Density Functional Theory.
 https://doi.org/10.1002/9781118670712.ch8

 Heinecke, A; Henry, G; Hutchinson, M; Pabst, H. 
 Proceedings of Intl. Supercomputing Conference, 981-991 (2016). 
 LIBXSMM: Accelerating Small Matrix Multiplications
 by Runtime Code Generation.
 https://doi.org/10.1109/SC.2016.83

 Borstnik, U; VandeVondele, J; Weber, V; Hutter, J. 
 PARALLEL COMPUTING, 40 (5-6), 47-58 (2014). 
 Sparse matrix multiplication: The distributed block-compressed sparse
 row library.
 https://doi.org/10.1016/j.parco.2014.03.012

 Hutter, J; Iannuzzi, M; Schiffmann, F; VandeVondele, J. 
 WIREs Comput Mol Sci., 4 (1), 15-25 (2014). 
 CP2K: atomistic simulations of condensed matter systems.
 https://doi.org/10.1002/wcms.1159

 Marek, A; Blum, V; Johanni, R; Havu, V; Lang, B; Auckenthaler, T;
 Heinecke, A; Bungartz, H; Lederer, H. 
 Journal of Physics: Condensed Matter, 26 (21), (2014). 
 The ELPA library: scalable parallel eigenvalue solutions for
 electronic structure
 theory and computational science.
 https://doi.org/10.1088/0953-8984/26/21/213201

 VandeVondele, J; Hutter, J. 
 JOURNAL OF CHEMICAL PHYSICS, 127 (11), 114105 (2007). 
 Gaussian basis sets for accurate calculations on molecular systems in
 gas and condensed phases.
 https://doi.org/10.1063/1.2770708

 Kuhne, TD; Krack, M; Mohamed, FR; Parrinello, M. 
 PHYSICAL REVIEW LETTERS, 98 (6), 066401 (2007). 
 Efficient and accurate Car-Parrinello-like approach to
 Born-Oppenheimer molecular dynamics.
 https://doi.org/10.1103/PhysRevLett.98.066401

 Krack, M. 
 THEORETICAL CHEMISTRY ACCOUNTS, 114 (1-3), 145-152 (2005). 
 Pseudopotentials for H to Kr optimized for gradient-corrected
 exchange-correlation functionals.
 https://doi.org/10.1007/s00214-005-0655-y

 VandeVondele, J; Krack, M; Mohamed, F; Parrinello, M; Chassaing, T;
 Hutter, J. COMPUTER PHYSICS COMMUNICATIONS, 167 (2), 103-128 (2005). 
 QUICKSTEP: Fast and accurate density functional calculations using a
 mixed Gaussian and plane waves approach.
 https://doi.org/10.1016/j.cpc.2004.12.014

 Frigo, M; Johnson, SG. 
 PROCEEDINGS OF THE IEEE, 93 (2), 216-231 (2005). 
 The design and implementation of FFTW3.
 https://doi.org/10.1109/JPROC.2004.840301

 Kolafa, J. 
 JOURNAL OF COMPUTATIONAL CHEMISTRY, 25 (3), 335-342 (2004). 
 Time-reversible always stable predictor-corrector method for molecular dynamics of polarizable molecules.
 https://doi.org/10.1002/jcc.10385

 VandeVondele, J; Hutter, J. 
 JOURNAL OF CHEMICAL PHYSICS, 118 (10), 4365-4369 (2003). 
 An efficient orbital transformation method for electronic structure
 calculations.
 https://doi.org/10.1063/1.1543154

 Hartwigsen, C; Goedecker, S; Hutter, J. 
 PHYSICAL REVIEW B, 58 (7), 3641-3662 (1998). 
 Relativistic separable dual-space Gaussian pseudopotentials from H to Rn.
 https://doi.org/10.1103/PhysRevB.58.3641

 Lippert, G; Hutter, J; Parrinello, M. 
 MOLECULAR PHYSICS, 92 (3), 477-487 (1997). 
 A hybrid Gaussian and plane wave density functional scheme.
 https://doi.org/10.1080/002689797170220

 Perdew, JP; Burke, K; Ernzerhof, M. 
 PHYSICAL REVIEW LETTERS, 77 (18), 3865-3868 (1996). 
 Generalized gradient approximation made simple.
 https://doi.org/10.1103/PhysRevLett.77.3865

 Goedecker, S; Teter, M; Hutter, J. 
 PHYSICAL REVIEW B, 54 (3), 1703-1710 (1996). 
 Separable dual-space Gaussian pseudopotentials.
 https://doi.org/10.1103/PhysRevB.54.1703

 NOSE, S. JOURNAL OF CHEMICAL PHYSICS, 81 (1), 511-519 (1984). 
 A UNIFIED FORMULATION OF THE CONSTANT TEMPERATURE MOLECULAR-DYNAMICS
 METHODS.
 https://doi.org/10.1063/1.447334

 NOSE, S. MOLECULAR PHYSICS, 52 (2), 255-268 (1984). 
 A MOLECULAR-DYNAMICS METHOD FOR SIMULATIONS IN THE CANONICAL ENSEMBLE.
 https://doi.org/10.1080/00268978400101201


 -------------------------------------------------------------------------------
 -                                                                             -
 -                                T I M I N G                                  -
 -                                                                             -
 -------------------------------------------------------------------------------
 SUBROUTINE                       CALLS  ASD         SELF TIME        TOTAL TIME
                                MAXIMUM       AVERAGE  MAXIMUM  AVERAGE  MAXIMUM
 CP2K                                 1  1.0    0.005    0.011 1671.682 1671.684
 qs_mol_dyn_low                       1  2.0    0.027    0.034 1671.219 1671.230
 velocity_verlet                   1000  3.0    0.103    0.371 1656.795 1657.734
 qs_forces                         1001  4.0    0.059    0.067 1640.663 1640.667
 qs_energies                       1001  5.0    0.042    0.045 1450.681 1450.734
 scf_env_do_scf                    1001  6.0    0.038    0.226 1363.587 1363.595
 scf_env_do_scf_inner_loop         6983  7.0    0.212    2.502 1170.007 1171.241
 rebuild_ks_matrix                 7984  8.6    0.021    0.024 1063.027 1063.414
 qs_ks_build_kohn_sham_matrix      7984  9.6    0.806    0.872 1063.006 1063.393
 qs_ks_update_qs_env               7984  8.0    0.053    0.063  879.926  880.223
 pw_transfer                     125778 12.2    5.669    6.084  779.783  824.513
 fft_wrap_pw1pw2                 109810 13.3    0.907    0.962  769.471  814.211
 qs_vxc_create                     7984 10.6    0.097    0.108  782.364  783.853
 fft_wrap_pw1pw2_200              70879 14.4   43.028   46.240  732.702  778.169
 fft3d_ps                        109810 15.3  334.712  381.197  631.253  675.065
 xc_vxc_pw_create                  4993 11.4    8.153    9.250  572.850  574.352
 xc_rho_set_and_dset_create        7984 12.6    3.336    3.454  483.936  550.288
 qs_rho_update_rho                 7984  8.1    0.035    0.040  379.427  379.900
 calculate_rho_elec                7984  9.1    4.553    5.039  379.392  379.860
 density_rs2pw                     7984 10.1    0.308    0.321  318.147  332.230
 mp_alltoall_z22v                109810 17.3  243.339  302.000  243.339  302.000
 xc_functional_eval                7984 13.6    0.057    0.073  211.309  275.722
 pbe_lda_eval                      7984 14.6  211.252  275.676  211.252  275.676
 rs_pw_transfer                   53910 11.9    0.606    0.690  242.335  250.588
 xc_exc_calc                       2991 12.0    1.344    1.548  209.417  209.470
 yz_to_x                          52909 15.7   17.245   19.799  152.241  201.868
 init_scf_loop                     1001  7.0    0.018    0.020  191.431  191.436
 sum_up_and_integrate              4993 10.4    1.004    1.134  188.242  188.521
 integrate_v_rspace                4993 11.4    0.100    0.112  187.231  187.546
 qs_ks_update_qs_env_forces        1001  5.0    0.004    0.005  184.585  184.682
 x_to_yz                          56901 16.8   34.530   39.966  142.873  151.088
 potential_pw2rs                   4993 12.4    0.295    0.301  144.574  144.886
 rs_pw_transfer_RS2PW_200          8985 11.9   46.986   50.562  110.506  119.013
 grid_collocate_task_list          7984 10.1   46.297   90.863   46.297   90.863
 dbcsr_multiply_generic           93089 12.3    2.538    2.944   84.567   86.795
 mp_waitany                      449370 13.6   76.805   86.282   76.805   86.282
 mp_sum_d                        101485 12.6   56.070   84.407   56.070   84.407
 qs_scf_new_mos                    6983  8.0    0.035    0.046   75.224   75.370
 qs_scf_loop_do_ot                 6983  9.0    0.034    0.040   75.189   75.339
 ot_scf_mini                       6983 10.0    0.091    0.097   68.368   68.477
 rs_pw_transfer_PW2RS_200          5994 13.7   33.001   34.684   59.386   61.563
 init_scf_run                      1001  6.0    0.030    0.336   60.819   60.820
 scf_env_initial_rho_setup         1001  7.0    0.027    0.443   60.786   60.800
 wfi_extrapolate                   1001  8.0    0.051    0.054   59.956   59.972
 mp_waitall_1                   6168313 16.1   49.464   53.554   49.464   53.554
 pw_gather_p                      52909 14.7   46.002   49.023   46.002   49.023
 pw_scatter_p                     56901 15.8   45.993   47.033   45.993   47.033
 write_mo_set_to_restart           6983  8.0    1.997   44.921   45.002   46.178
 write_mo_set_low                  1002  9.0    0.004    0.027   42.122   43.946
 cp_fm_write_unformatted           1002 10.0   42.117   43.936   42.118   43.944
 mp_alltoall_d11v                191278 13.2   38.079   43.553   38.079   43.553
 grid_integrate_task_list          4993 12.4    9.757   40.949    9.757   40.949
 ot_mini                           6983 11.0    0.030    0.032   39.256   39.364
 rs_gather_matrices                4993 12.4    0.060    0.076   32.680   38.138
 multiply_cannon                  93089 13.3    4.871    5.293   32.864   35.899
 -------------------------------------------------------------------------------

 The number of warnings for this run is : 2
 
 -------------------------------------------------------------------------------
  **** **** ******  **  PROGRAM ENDED AT                 2021-10-25 10:15:28.731
 ***** ** ***  *** **   PROGRAM RAN ON                                     node2
 **    ****   ******    PROGRAM RAN BY                                   lujunbo
 ***** **    ** ** **   PROGRAM PROCESS ID                                663393
  **** **  *******  **  PROGRAM STOPPED IN /home/lujunbo/WORK/deepmd/c2h6/mtd/tr
                                           ain_4_sys/cp2k_md/sys_1
