       8
 i =        0, time =        0.000, E =       -14.9507520345
  C        -0.0244583961        0.0000123864        0.0000391681
  C         0.0243353333        0.0000779068       -0.0001032014
  H         0.0003572838       -0.0062611368       -0.0108382135
  H         0.0003843107       -0.0062619574        0.0108400061
  H         0.0003796339        0.0125149915       -0.0000014679
  H        -0.0003718767        0.0062300911       -0.0107931756
  H        -0.0003525349        0.0062737887        0.0108612398
  H        -0.0003578596       -0.0125395938       -0.0000043499
       8
 i =        1, time =        0.500, E =       -14.9505665125
  C        -0.0228052016       -0.0024255618        0.0018851091
  C         0.0250919063       -0.0002168919        0.0009648770
  H        -0.0006808950       -0.0050981121       -0.0101308272
  H        -0.0012421338       -0.0050851753        0.0090517977
  H         0.0002522287        0.0127249387       -0.0005306967
  H        -0.0007363144        0.0072354488       -0.0123413484
  H         0.0001811177        0.0065681755        0.0110852432
  H        -0.0001423842       -0.0136573686        0.0000190688
       8
 i =        2, time =        1.000, E =       -14.9505423979
  C        -0.0202488176       -0.0047563751        0.0037073194
  C         0.0247931808       -0.0004967147        0.0019275620
  H        -0.0019141545       -0.0035530474       -0.0087258980
  H        -0.0030554399       -0.0035174829        0.0065808518
  H        -0.0001223908        0.0120549369       -0.0010509226
  H        -0.0008100876        0.0077341560       -0.0130228915
  H         0.0009472963        0.0064193375        0.0105494187
  H         0.0003294211       -0.0138403270        0.0000410366
       8
 i =        3, time =        1.500, E =       -14.9506389303
  C        -0.0169421188       -0.0068442639        0.0054117362
  C         0.0234666523       -0.0007555622        0.0027298025
  H        -0.0032867403       -0.0016952698       -0.0067177314
  H        -0.0049674634       -0.0016589847        0.0035976967
  H        -0.0007307945        0.0105352821       -0.0015472234
  H        -0.0005827047        0.0077084650       -0.0128065656
  H         0.0019172684        0.0058391570        0.0092857726
  H         0.0010438515       -0.0130851731        0.0000560216
       8
 i =        4, time =        2.000, E =       -14.9507825196
  C        -0.0130912189       -0.0085380664        0.0068906611
  C         0.0211843924       -0.0009894745        0.0033148211
  H        -0.0047284603        0.0003807101       -0.0042488604
  H        -0.0068691437        0.0003545829        0.0003357811
  H        -0.0015456189        0.0082419866       -0.0020055849
  H        -0.0000579404        0.0071628650       -0.0116996919
  H         0.0030489510        0.0048633118        0.0073661677
  H         0.0019740578       -0.0114326161        0.0000588452
       8
 i =        5, time =        2.500, E =       -14.9508908532
  C        -0.0089516623       -0.0096799830        0.0080317757
  C         0.0180659377       -0.0011958373        0.0036215370
  H        -0.0061553275        0.0025548804       -0.0015111744
  H        -0.0086341914        0.0023560831       -0.0029154516
  H        -0.0025245330        0.0053011565       -0.0024137952
  H         0.0007454555        0.0061249317       -0.0097495605
  H         0.0042861280        0.0035539796        0.0049061745
  H         0.0030791953       -0.0089720993        0.0000450113
       8
 i =        6, time =        3.000, E =       -14.9508998038
  C        -0.0048206776       -0.0101269066        0.0087356059
  C         0.0142807967       -0.0013725226        0.0035870742
  H        -0.0074723027        0.0046845067        0.0012567124
  H        -0.0101275299        0.0041575717       -0.0058301434
  H        -0.0036071561        0.0018978891       -0.0027625206
  H         0.0017916109        0.0046490939       -0.0070503797
  H         0.0055583804        0.0020023226        0.0020687601
  H         0.0043031012       -0.0058487590        0.0000112526
       8
 i =        7, time =        3.500, E =       -14.9507853547
  C        -0.0010170042       -0.0097834375        0.0089398254
  C         0.0100549997       -0.0015172597        0.0031570386
  H        -0.0085795061        0.0066131207        0.0037873637
  H        -0.0112205322        0.0055731720       -0.0080866139
  H        -0.0047145780       -0.0017230146       -0.0030462921
  H         0.0030231142        0.0028224999       -0.0037538925
  H         0.0067821050        0.0003286934       -0.0009361166
  H         0.0055728704       -0.0022703891       -0.0000437046
       8
 i =        8, time =        4.000, E =       -14.9505737742
  C         0.0021501196       -0.0086374723        0.0086421900
  C         0.0056699776       -0.0016269158        0.0023020398
  H        -0.0093822612        0.0081856964        0.0058130037
  H        -0.0118094659        0.0064478397       -0.0094185588
  H        -0.0057510048       -0.0052650377       -0.0032639450
  H         0.0043568787        0.0007698652       -0.0000776506
  H         0.0078641515       -0.0013225778       -0.0038607264
  H         0.0067989479        0.0014923812       -0.0001182314
       8
 i =        9, time =        4.500, E =       -14.9503359626
  C         0.0044142411       -0.0067862344        0.0079126406
  C         0.0014536288       -0.0016975357        0.0010377634
  H        -0.0098027436        0.0092679661        0.0071031401
  H        -0.0118328694        0.0066852700       -0.0096646083
  H        -0.0066093459       -0.0084013518       -0.0034186277
  H         0.0056829577       -0.0013466998        0.0036946241
  H         0.0087092996       -0.0027953630       -0.0064400257
  H         0.0078789353        0.0051179544       -0.0002069772
       8
 i =       10, time =        5.000, E =       -14.9501666381
  C         0.0055878007       -0.0044384463        0.0068863758
  C        -0.0022428678       -0.0017253894       -0.0005580754
  H        -0.0097917686        0.0097663452        0.0075031176
  H        -0.0112829652        0.0062667861       -0.0088014750
  H        -0.0071823071       -0.0108114433       -0.0035164533
  H         0.0068681487       -0.0033353182        0.0072261085
  H         0.0092305555       -0.0039399733       -0.0084221246
  H         0.0087054104        0.0082616438       -0.0003004579
       8
 i =       11, time =        5.500, E =       -14.9501538122
  C         0.0055890011       -0.0018847939        0.0057364075
  C        -0.0050824438       -0.0017087188       -0.0023415123
  H        -0.0093374324        0.0096436797        0.0069638032
  H        -0.0102071652        0.0052544223       -0.0069480943
  H        -0.0073778231       -0.0122293784       -0.0035644709
  H         0.0077675171       -0.0049935105        0.0101600903
  H         0.0093610186       -0.0046353606       -0.0096049779
  H         0.0091783039        0.0105978541       -0.0003856627
       8
 i =       12, time =        6.000, E =       -14.9503477908
  C         0.0044541199        0.0005576283        0.0046348064
  C        -0.0067896550       -0.0016494312       -0.0041177893
  H        -0.0084677873        0.0089254236        0.0055514109
  H        -0.0086987566        0.0037768028       -0.0043391975
  H        -0.0071356439       -0.0124909689       -0.0035682141
  H         0.0082439689       -0.0061375876        0.0121707286
  H         0.0090647085       -0.0048095658       -0.0098700794
  H         0.0092199496        0.0118718752       -0.0004477670
       8
 i =       13, time =        6.500, E =       -14.9507404203
  C         0.0023318270        0.0026091604        0.0037167202
  C        -0.0071977465       -0.0015532888       -0.0056763684
  H        -0.0072467079        0.0076944875        0.0034346605
  H        -0.0068809993        0.0020033958       -0.0012783861
  H        -0.0064403544       -0.0115680554       -0.0035298249
  H         0.0081926418       -0.0066358536        0.0130214190
  H         0.0083434461       -0.0044525488       -0.0092033773
  H         0.0087893516        0.0119463176       -0.0004726940
       8
 i =       14, time =        7.000, E =       -14.9512631710
  C        -0.0005381612        0.0040778910        0.0030593977
  C        -0.0062824474       -0.0014282393       -0.0068356659
  H        -0.0057642263        0.0060766082        0.0008537486
  H        -0.0048885361        0.0001157747        0.0019135351
  H        -0.0053263457       -0.0095740853       -0.0034474148
  H         0.0075634856       -0.0064360622        0.0126137332
  H         0.0072374167       -0.0036172894       -0.0076967799
  H         0.0078913063        0.0108284220       -0.0004499960
       8
 i =       15, time =        7.500, E =       -14.9518063727
  C        -0.0038574227        0.0048813741        0.0026804083
  C        -0.0041706938       -0.0012814542       -0.0074812304
  H        -0.0041241041        0.0042205176       -0.0019194298
  H        -0.0028517998       -0.0017164630        0.0049410367
  H        -0.0038730978       -0.0067432452       -0.0033159318
  H         0.0063742362       -0.0055769910        0.0110093836
  H         0.0058191788       -0.0024090077       -0.0055299320
  H         0.0065772527        0.0086670570       -0.0003750987
       8
 i =       16, time =        8.000, E =       -14.9522535181
  C        -0.0073048429        0.0050378776        0.0025507904
  C        -0.0011206540       -0.0011169819       -0.0075831502
  H        -0.0024313380        0.0022783378       -0.0046187179
  H        -0.0008862029       -0.0033509245        0.0075600064
  H        -0.0021919321       -0.0033862210       -0.0031291557
  H         0.0047087979       -0.0041795212        0.0084165507
  H         0.0041834070       -0.0009660234       -0.0029382851
  H         0.0049376908        0.0057238332       -0.0002502001
       8
 i =       17, time =        8.500, E =       -14.9525178868
  C        -0.0105690508        0.0046371123        0.0026146547
  C         0.0025209033       -0.0009350973       -0.0071887314
  H        -0.0007832335        0.0003903683       -0.0070105765
  H         0.0009125096       -0.0046788475        0.0095879431
  H        -0.0004091150        0.0001601617       -0.0028819148
  H         0.0027017750       -0.0024206079        0.0051456420
  H         0.0024348312        0.0005617224       -0.0001770989
  H         0.0030882368        0.0023241022       -0.0000836857
       8
 i =       18, time =        9.000, E =       -14.9525679011
  C        -0.0133732177        0.0038045815        0.0028076264
  C         0.0063710552       -0.0007337932       -0.0063970355
  H         0.0007365976       -0.0013242109       -0.0089090928
  H         0.0024692365       -0.0056244177        0.0109016163
  H         0.0013504496        0.0035768229       -0.0025717409
  H         0.0005146730       -0.0004996857        0.0015514114
  H         0.0006770397        0.0020311706        0.0025098276
  H         0.0011537753       -0.0011928205        0.0001116220
       8
 i =       19, time =        9.500, E =       -14.9524328269
  C        -0.0154896078        0.0026718062        0.0030694058
  C         0.0100575852       -0.0005110384       -0.0053280476
  H         0.0020608122       -0.0027713371       -0.0101807792
  H         0.0037283078       -0.0061413925        0.0114303586
  H         0.0029756502        0.0065930221       -0.0021998297
  H        -0.0016886069        0.0013921047       -0.0020218024
  H        -0.0009955663        0.0033188759        0.0049115238
  H        -0.0007454093       -0.0045153625        0.0003206170
       8
 i =       20, time =       10.000, E =       -14.9521886744
  C        -0.0167455556        0.0013586214        0.0033490384
  C         0.0132544295       -0.0002665991       -0.0040976041
  H         0.0031385043       -0.0038818296       -0.0107411973
  H         0.0046517225       -0.0062084520        0.0111473536
  H         0.0043755723        0.0089991447       -0.0017710159
  H        -0.0037603258        0.0030929690       -0.0052779216
  H        -0.0025029536        0.0043275923        0.0068609556
  H        -0.0025038665       -0.0073854223        0.0005279676
       8
 i =       21, time =       10.500, E =       -14.9519310157
  C        -0.0170252158       -0.0000326821        0.0036048906
  C         0.0156996693       -0.0000031821       -0.0028030363
  H         0.0039344669       -0.0046098802       -0.0105500465
  H         0.0052186184       -0.0058261130        0.0100640515
  H         0.0054816476        0.0106478346       -0.0012932663
  H        -0.0055793154        0.0044796330       -0.0079864886
  H        -0.0037814739        0.0049874394        0.0082371124
  H        -0.0040355917       -0.0096074369        0.0007193861
       8
 i =       22, time =       11.000, E =       -14.9517445547
  C        -0.0162691550       -0.0014136740        0.0038007373
  C         0.0172004063        0.0002735613       -0.0015197207
  H         0.0044283858       -0.0049307651       -0.0096066147
  H         0.0054256684       -0.0050159373        0.0082287809
  H         0.0062468675        0.0114481138       -0.0007771098
  H        -0.0070538360        0.0054673155       -0.0099842392
  H        -0.0047841041        0.0052541721        0.0089626670
  H        -0.0052753310       -0.0110472419        0.0008824767
       8
 i =       23, time =       11.500, E =       -14.9516785028
  C        -0.0144756604       -0.0027010871        0.0039006817
  C         0.0176300883        0.0005555285       -0.0003050777
  H         0.0046151966       -0.0048410607       -0.0079482882
  H         0.0052899617       -0.0038221648        0.0057295257
  H         0.0066438648        0.0113579809       -0.0002350134
  H        -0.0081199082        0.0060047815       -0.0111673111
  H        -0.0054798691        0.0051069148        0.0089993621
  H        -0.0061775215       -0.0116251800        0.0010069667
       8
 i =       24, time =       12.000, E =       -14.9517339249
  C        -0.0117044738       -0.0038072578        0.0038647385
  C         0.0169235946        0.0008328781        0.0007939009
  H         0.0045064019       -0.0043595104       -0.0056514405
  H         0.0048518027       -0.0023146041        0.0026988546
  H         0.0066633230        0.0103793424        0.0003191111
  H        -0.0087376513        0.0060678449       -0.0114805326
  H        -0.0058536526        0.0045464436        0.0083452563
  H        -0.0067146520       -0.0113091433        0.0010847523
       8
 i =       25, time =       12.500, E =       -14.9518655265
  C        -0.0080821656       -0.0046337688        0.0036471808
  C         0.0150740862        0.0010948142        0.0017329304
  H         0.0041321993       -0.0035300835       -0.0028347583
  H         0.0041780714       -0.0005912965       -0.0006815511
  H         0.0063139343        0.0085573595        0.0008702130
  H        -0.0088881828        0.0056545161       -0.0109093797
  H        -0.0059067412        0.0035950846        0.0070341682
  H        -0.0068767903       -0.0101102577        0.0011099342
       8
 i =       26, time =       13.000, E =       -14.9519967695
  C        -0.0038068127       -0.0050719646        0.0031992609
  C         0.0121342988        0.0013304300        0.0024650973
  H         0.0035436042       -0.0024250941        0.0003376510
  H         0.0033627110        0.0012211602       -0.0041809341
  H         0.0056240699        0.0059843518        0.0014026521
  H        -0.0085725544        0.0047830393       -0.0094771989
  H        -0.0056585108        0.0022982319        0.0051380606
  H        -0.0066719172       -0.0080833026        0.0010790747
       8
 i =       27, time =       13.500, E =       -14.9520443429
  C         0.0008530057       -0.0050133589        0.0024773652
  C         0.0082217925        0.0015298246        0.0029398004
  H         0.0028132156       -0.0011468116        0.0036566573
  H         0.0025227067        0.0029727972       -0.0075292061
  H         0.0046444218        0.0028065794        0.0019009172
  H        -0.0078132155        0.0034930580       -0.0072480394
  H        -0.0051481300        0.0007265019        0.0027704306
  H        -0.0061280805       -0.0053314389        0.0009917243
       8
 i =       28, time =       14.000, E =       -14.9519454522
  C         0.0055696899       -0.0043709010        0.0014559355
  C         0.0035260589        0.0016854018        0.0031074513
  H         0.0020328778        0.0001751525        0.0068763679
  H         0.0017870759        0.0045024373       -0.0104381666
  H         0.0034506017       -0.0007693280        0.0023506484
  H        -0.0066578142        0.0018496289       -0.0043347741
  H        -0.0044360649       -0.0010225428        0.0000886997
  H        -0.0052961762       -0.0020123747        0.0008510842
       8
 i =       29, time =       14.500, E =       -14.9516803607
  C         0.0099824196       -0.0031079655        0.0001419330
  C        -0.0016874594        0.0017932854        0.0029303594
  H         0.0013066336        0.0013926455        0.0097318856
  H         0.0012796016        0.0056566576       -0.0126358552
  H         0.0021437171       -0.0044757447        0.0027398518
  H        -0.0051839281       -0.0000519307       -0.0009091469
  H        -0.0036030550       -0.0028253983       -0.0027075387
  H        -0.0042520178        0.0016562720        0.0006649554
       8
 i =       30, time =       15.000, E =       -14.9512830259
  C         0.0137365946       -0.0012672265       -0.0014143707
  C        -0.0070799459        0.0018541764        0.0023987271
  H         0.0007385766        0.0023552432        0.0119681391
  H         0.0010971874        0.0063130540       -0.0139067022
  H         0.0008461362       -0.0079948984        0.0030601505
  H        -0.0035025601       -0.0020825749        0.0027908716
  H        -0.0027459077       -0.0045380850       -0.0053856848
  H        -0.0030958436        0.0053983532        0.0004462873
       8
 i =       31, time =       15.500, E =       -14.9508353299
  C         0.0165312107        0.0010124371       -0.0031181125
  C        -0.0122585077        0.0018732413        0.0015479058
  H         0.0004173547        0.0029320482        0.0133746235
  H         0.0012907936        0.0064015601       -0.0141286825
  H        -0.0003087260       -0.0109850614        0.0033075384
  H        -0.0017563959       -0.0040815771        0.0064640854
  H        -0.0019682163       -0.0060082204       -0.0077002674
  H        -0.0019465515        0.0088935340        0.0002130218
       8
 i =       32, time =       16.000, E =       -14.9504449109
  C         0.0181648674        0.0035027416       -0.0048413644
  C        -0.0168127009        0.0018586640        0.0004696847
  H         0.0004007024        0.0030339172        0.0138188581
  H         0.0018544060        0.0059173142       -0.0132952377
  H        -0.0011931712       -0.0131229177        0.0034821704
  H        -0.0001104494       -0.0058665852        0.0097644888
  H        -0.0013673098       -0.0070922556       -0.0094212919
  H        -0.0009302004        0.0118067473       -0.0000131969
       8
 i =       33, time =       16.500, E =       -14.9502121152
  C         0.0185685633        0.0059200500       -0.0064448790
  C        -0.0203675637        0.0018191048       -0.0006897954
  H         0.0007043311        0.0026307635        0.0132690997
  H         0.0027259838        0.0049210078       -0.0115147727
  H        -0.0017058916       -0.0141551903        0.0035871874
  H         0.0012667314       -0.0072536631        0.0123390372
  H        -0.0010192699       -0.0076759207       -0.0103674552
  H        -0.0001630525        0.0138306374       -0.0002095684
       8
 i =       34, time =       17.000, E =       -14.9501964507
  C         0.0178162249        0.0079790845       -0.0078029642
  C        -0.0226433004        0.0017610594       -0.0017503155
  H         0.0012988856        0.0017577062        0.0117992214
  H         0.0038002902        0.0035266881       -0.0089889641
  H        -0.0017910735       -0.0139462806        0.0036269268
  H         0.0022293461       -0.0080851873        0.0138815353
  H        -0.0009658366       -0.0076928014       -0.0104360478
  H         0.0002677411        0.0147350737       -0.0003556819
       8
 i =       35, time =       17.500, E =       -14.9503948412
  C         0.0161100292        0.0094489354       -0.0088231332
  C        -0.0235062508        0.0016874420       -0.0025331685
  H         0.0021161731        0.0005081488        0.0095743082
  H         0.0049488110        0.0018812352       -0.0059769780
  H        -0.0014497243       -0.0125062445        0.0036051421
  H         0.0026816784       -0.0082591877        0.0141901027
  H        -0.0012071361       -0.0071359534       -0.0096210939
  H         0.0003202111        0.0144090617       -0.0004371529
       8
 i =       36, time =       18.000, E =       -14.9507410382
  C         0.0137446592        0.0101923561       -0.0094551279
  C        -0.0229944443        0.0015979731       -0.0029009047
  H         0.0030620471       -0.0009834060        0.0068212950
  H         0.0060407372        0.0001417189       -0.0027558482
  H        -0.0007391158       -0.0099908617        0.0035240471
  H         0.0025977291       -0.0077508831        0.0132102221
  H        -0.0017025034       -0.0060589247       -0.0080139235
  H         0.0000054162        0.0128826912       -0.0004483052
       8
 i =       37, time =       18.500, E =       -14.9511276830
  C         0.0110601528        0.0101772200       -0.0096890382
  C        -0.0213077958        0.0014908919       -0.0027864722
  H         0.0040323532       -0.0025636208        0.0037941416
  H         0.0069594926       -0.0015436540        0.0004121854
  H         0.0002395822       -0.0066701074        0.0033844050
  H         0.0020257696       -0.0066184838        0.0110477286
  H        -0.0023790523       -0.0045660592       -0.0057861692
  H        -0.0006158237        0.0103215717       -0.0003930220
       8
 i =       38, time =       19.000, E =       -14.9514429548
  C         0.0083948522        0.0094615354       -0.0095459825
  C        -0.0187661046        0.0013648367       -0.0022012613
  H         0.0049272516       -0.0040815742        0.0007419480
  H         0.0076125993       -0.0030481370        0.0033015135
  H         0.0013610889       -0.0028810344        0.0031865565
  H         0.0010760203       -0.0049909420        0.0079463909
  H        -0.0031451987       -0.0027953342       -0.0031606842
  H        -0.0014460891        0.0069951135       -0.0002835360
       8
 i =       39, time =       19.500, E =       -14.9516074843
  C         0.0060480044        0.0081627934       -0.0090663846
  C        -0.0157488537        0.0012198138       -0.0012215612
  H         0.0056615627       -0.0054043760       -0.0021141295
  H         0.0079350800       -0.0042722883        0.0057329707
  H         0.0024967105        0.0010260698        0.0029318122
  H        -0.0001037072       -0.0030421906        0.0042392528
  H        -0.0039050684       -0.0008984956       -0.0003789076
  H        -0.0023698502        0.0032303058       -0.0001377040
       8
 i =       40, time =       20.000, E =       -14.9515977846
  C         0.0042560201        0.0064252235       -0.0082999462
  C        -0.0126342754        0.0010571811        0.0000377469
  H         0.0061701426       -0.0064261597       -0.0045939196
  H         0.0078886299       -0.0051449287        0.0075756817
  H         0.0035310548        0.0047290479        0.0026232678
  H        -0.0013557719       -0.0009608478        0.0002896676
  H        -0.0045706959        0.0009769443        0.0023282584
  H        -0.0032718510       -0.0006371315        0.0000242518
       8
 i =       41, time =       20.500, E =       -14.9514490551
  C         0.0031842789        0.0043939866       -0.0072989434
  C        -0.0097536473        0.0008789306        0.0014520068
  H         0.0064089014       -0.0070706635       -0.0065610398
  H         0.0074580170       -0.0056208613        0.0087428558
  H         0.0043715971        0.0079602777        0.0022665713
  H        -0.0025359275        0.0010759874       -0.0035596071
  H        -0.0050697998        0.0027000723        0.0047598287
  H        -0.0040508961       -0.0043000469        0.0001827492
       8
 i =       42, time =       21.000, E =       -14.9512387891
  C         0.0029276637        0.0022021336       -0.0061160000
  C        -0.0073657329        0.0006870999        0.0029064811
  H         0.0063536695       -0.0072900698       -0.0079221035
  H         0.0066481748       -0.0056783679        0.0091880574
  H         0.0049517836        0.0105161011        0.0018696968
  H        -0.0035269614        0.0029191172       -0.0070187550
  H        -0.0053491429        0.0041638143        0.0067555280
  H        -0.0046275266       -0.0075034187        0.0003205729
       8
 i =       43, time =       21.500, E =       -14.9510589036
  C         0.0035170644       -0.0000324916       -0.0048048434
  C        -0.0056502102        0.0004833491        0.0043069285
  H         0.0059979145       -0.0070624029       -0.0086227258
  H         0.0054818440       -0.0053175231        0.0089025002
  H         0.0052296799        0.0122554289        0.0014426800
  H        -0.0042436231        0.0044540876       -0.0098649845
  H        -0.0053752067        0.0052871794        0.0081986009
  H        -0.0049462017       -0.0100522917        0.0004240814
       8
 i =       44, time =       22.000, E =       -14.9509862582
  C         0.0049269041       -0.0022025800       -0.0034235777
  C        -0.0047138724        0.0002689616        0.0055802387
  H         0.0053507036       -0.0063888319       -0.0086440117
  H         0.0039989171       -0.0045600946        0.0079159415
  H         0.0051843910        0.0130926849        0.0009970237
  H        -0.0046305987        0.0056004253       -0.0119414455
  H        -0.0051321427        0.0060147283        0.0090135800
  H        -0.0049736356       -0.0118107673        0.0004831374
       8
 i =       45, time =       22.500, E =       -14.9510600147
  C         0.0070807659       -0.0042035918       -0.0020383838
  C        -0.0046020267        0.0000449024        0.0066694700
  H         0.0044354963       -0.0052926840       -0.0080018953
  H         0.0022568979       -0.0034510660        0.0062999457
  H         0.0048124391        0.0129899674        0.0005452337
  H        -0.0046576783        0.0063070062       -0.0131488517
  H        -0.0046201589        0.0063151520        0.0091632168
  H        -0.0046957360       -0.0126959012        0.0004908817
       8
 i =       46, time =       23.000, E =       -14.9512711627
  C         0.0098543191       -0.0059270435       -0.0007260362
  C        -0.0053095423       -0.0001878879        0.0075268513
  H         0.0032898668       -0.0038194418       -0.0067489789
  H         0.0003320905       -0.0020609011        0.0041727036
  H         0.0041253816        0.0119533086        0.0001002637
  H        -0.0043143755        0.0065467278       -0.0134352442
  H        -0.0038535770        0.0061800998        0.0086455624
  H        -0.0041148598       -0.0126715252        0.0004432673
       8
 i =       47, time =       23.500, E =       -14.9515658966
  C         0.0130766343       -0.0072585789        0.0004270708
  C        -0.0067879279       -0.0004282746        0.0081078140
  H         0.0019656394       -0.0020385693       -0.0049780140
  H        -0.0016806442       -0.0004869241        0.0017023802
  H         0.0031491323        0.0100332904       -0.0003251915
  H        -0.0036064089        0.0063130595       -0.0127896444
  H        -0.0028600236        0.0056244445        0.0074938564
  H        -0.0032477816       -0.0117453540        0.0003389093
       8
 i =       48, time =       24.000, E =       -14.9518614202
  C         0.0165320059       -0.0080839488        0.0013314394
  C        -0.0089473117       -0.0006745337        0.0083681956
  H         0.0005288641       -0.0000446097       -0.0028253157
  H        -0.0036704242        0.0011482884       -0.0008953013
  H         0.0019252471        0.0073310030       -0.0007194143
  H        -0.0025545727        0.0056193829       -0.0112407777
  H        -0.0016803462        0.0046878120        0.0057781942
  H        -0.0021255176       -0.0099702501        0.0001791703
       8
 i =       49, time =       24.500, E =       -14.9520701065
  C         0.0199654859       -0.0083045886        0.0019074965
  C        -0.0116538230       -0.0009238072        0.0082662170
  H        -0.0009414852        0.0020433045       -0.0004708202
  H        -0.0055165733        0.0027035637       -0.0033691457
  H         0.0005129141        0.0040061267       -0.0010729069
  H        -0.0011963835        0.0045015384       -0.0088622695
  H        -0.0003683131        0.0034367131        0.0036079909
  H        -0.0007944318       -0.0074493649       -0.0000313018
       8
 i =       50, time =       25.000, E =       -14.9521260025
  C         0.0230947117       -0.0078618035        0.0021040499
  C        -0.0147245307       -0.0011714951        0.0077698980
  H        -0.0023573339        0.0040857583        0.0018689527
  H        -0.0070995180        0.0040322421       -0.0054561739
  H        -0.0010090661        0.0002838347       -0.0013796061
  H         0.0004104076        0.0030227821       -0.0057820205