#     Step Nr.          Time[fs]        Kin.[a.u.]          Temp[K]            Pot.[a.u.]        Cons Qty[a.u.]        UsedTime[s]
         0            0.000000         0.001662578        50.000000000       -14.950752035       -14.949010286         0.000000000
         1            0.500000         0.001470691        44.229219389       -14.950566513       -14.949009873         8.399590841
         2            1.000000         0.001437671        43.236205037       -14.950542398       -14.949012507         6.314298749
         3            1.500000         0.001523090        45.805072372       -14.950638930       -14.949017267         2.881077230
         4            2.000000         0.001654518        49.757616585       -14.950782520       -14.949022625         1.457187695
         5            2.500000         0.001751306        52.668378932       -14.950890853       -14.949026873         1.327481806
         6            3.000000         0.001750980        52.658572220       -14.950899804       -14.949028619         1.413292633
         7            3.500000         0.001630682        49.040775948       -14.950785355       -14.949027173         1.616933050
         8            4.000000         0.001416851        42.610046805       -14.950573774       -14.949022850         1.405706065
         9            4.500000         0.001179375        35.468262086       -14.950335963       -14.949016943         1.418832652
        10            5.000000         0.001010965        30.403527833       -14.950166638       -14.949011386         1.427561568
        11            5.500000         0.000997174        29.988795533       -14.950153812       -14.949008165         1.413790679
        12            6.000000         0.001186209        35.673782588       -14.950347791       -14.949008638         1.407939877
        13            6.500000         0.001568940        47.183952245       -14.950740420       -14.949012961         1.589741535
        14            7.000000         0.002077350        62.473761716       -14.951263171       -14.949019926         1.772403242
        15            7.500000         0.002603540        78.298279926       -14.951806373       -14.949027336         1.746294839
        16            8.000000         0.003033286        91.222361498       -14.952253518       -14.949032841         1.771828447
        17            8.500000         0.003281819        98.696676596       -14.952517887       -14.949034824         1.805181943
        18            9.000000         0.003318598        99.802771521       -14.952567901       -14.949032933         1.790381022
        19            9.500000         0.003172852        95.419626848       -14.952432827       -14.949028075         2.010864951
        20           10.000000         0.002919645        87.804737574       -14.952188674       -14.949021988         1.810127473
        21           10.500000         0.002653081        79.788151362       -14.951931016       -14.949016603         1.828092912
        22           11.000000         0.002456310        73.870504335       -14.951744555       -14.949013486         1.808310805
        23           11.500000         0.002377347        71.495799088       -14.951678503       -14.949013440         1.775688747
        24           12.000000         0.002416770        72.681403656       -14.951733925       -14.949016361         1.796008704
        25           12.500000         0.002529682        76.077087393       -14.951865527       -14.949021314         1.815264475
        26           13.000000         0.002640839        79.420005891       -14.951996769       -14.949026754         1.785376038
        27           13.500000         0.002668849        80.262352921       -14.952044343       -14.949030955         1.725045947
        28           14.000000         0.002553017        76.778848367       -14.951945452       -14.949032465         1.749891965
        29           14.500000         0.002275289        68.426539964       -14.951680361       -14.949030570         1.755597007
        30           15.000000         0.001870305        56.247124760       -14.951283026       -14.949025586         1.748662574
        31           15.500000         0.001419243        42.682008035       -14.950835330       -14.949018877         1.782474454
        32           16.000000         0.001027699        30.906789516       -14.950444911       -14.949012538         1.746960476
        33           16.500000         0.000793221        23.855152046       -14.950212115       -14.949008728         3.543173900
        34           17.000000         0.000772758        23.239757475       -14.950196451       -14.949008882         1.739638017
        35           17.500000         0.000961899        28.927933079       -14.950394841       -14.949013077         1.760696335
        36           18.000000         0.001294769        38.938598051       -14.950741038       -14.949019918         4.265004771
        37           18.500000         0.001665831        50.097821185       -14.951127683       -14.949027054         1.502590671
        38           19.000000         0.001965681        59.115458758       -14.951442955       -14.949032112         2.251536855
        39           19.500000         0.002117012        63.666538393       -14.951607484       -14.949033590         1.443702608
        40           20.000000         0.002097376        63.076006488       -14.951597785       -14.949031321         1.437671743
        41           20.500000         0.001941805        58.397422452       -14.951449055       -14.949026364         1.419835243
        42           21.000000         0.001726629        51.926246588       -14.951238789       -14.949020501         1.457613347
        43           21.500000         0.001542027        46.374567565       -14.951058904       -14.949015608         1.568019165
        44           22.000000         0.001463056        43.999621694       -14.950986258       -14.949013120         1.518942500
        45           22.500000         0.001527497        45.937616632       -14.951060015       -14.949013701         1.457642127
        46           23.000000         0.001725724        51.899047651       -14.951271163       -14.949017148         1.440424595
        47           23.500000         0.002004253        60.275444461       -14.951565897       -14.949022480         1.434233256
        48           24.000000         0.002281498        68.613255279       -14.951861420       -14.949028184         1.438316811
        49           24.500000         0.002471683        74.332827139       -14.952070107       -14.949032577         1.457195465
        50           25.000000         0.002510883        75.511723750       -14.952126002       -14.949034261         1.448583443
        51           25.500000         0.002378194        71.521285234       -14.952006545       -14.949032536         1.466823651
        52           26.000000         0.002105445        63.318674086       -14.951742861       -14.949027714         2.314970156
        53           26.500000         0.001771136        53.264742798       -14.951414089       -14.949021155         1.426699745
        54           27.000000         0.001478491        44.463797433       -14.951125392       -14.949014953         1.432781363
        55           27.500000         0.001322942        39.785850124       -14.950974885       -14.949011285         1.435742313
        56           28.000000         0.001359407        40.882505069       -14.951019917       -14.949011575         1.491552234
        57           28.500000         0.001581679        47.567051671       -14.951255484       -14.949015858         1.478941949
        58           29.000000         0.001922998        57.831797347       -14.951614329       -14.949022677         1.472541157
        59           29.500000         0.002278706        68.529295373       -14.951989899       -14.949029656         1.502156122
        60           30.000000         0.002542356        76.458244247       -14.952273288       -14.949034467         1.481569706
        61           30.500000         0.002640992        79.424609445       -14.952389445       -14.949035706         1.489465341
        62           31.000000         0.002556561        76.885448237       -14.952319186       -14.949033291         1.437881522
        63           31.500000         0.002327225        69.988447219       -14.952100675       -14.949028311         1.440762332
        64           32.000000         0.002030614        61.068228512       -14.951812505       -14.949022512         1.452733958
        65           32.500000         0.001756765        52.832566657       -14.951546268       -14.949017693         1.460946836
        66           33.000000         0.001580147        47.520982236       -14.951378122       -14.949015222         1.477290614
        67           33.500000         0.001538562        46.270366005       -14.951347217       -14.949015714         1.477461586
        68           34.000000         0.001623664        48.829714708       -14.951445878       -14.949018994         1.435841821
        69           34.500000         0.001784567        53.668670371       -14.951622923       -14.949024099         1.783228902
        70           35.000000         0.001943222        58.440036763       -14.951799085       -14.949029544         1.464041287
        71           35.500000         0.002017872        60.685045154       -14.951890694       -14.949033667         1.457603103
        72           36.000000         0.001948908        58.611020350       -14.951836010       -14.949035059         1.673763528
        73           36.500000         0.001720202        51.732963676       -14.951617181       -14.949033002         1.464634530
        74           37.000000         0.001368947        41.169399369       -14.951270757       -14.949027815         1.468484564
        75           37.500000         0.000979141        29.446470743       -14.950881616       -14.949020935         1.491273936
        76           38.000000         0.000658404        19.800689993       -14.950559695       -14.949014576         1.494410470
        77           38.500000         0.000503924        15.154894575       -14.950405212       -14.949010984         1.468275268
        78           39.000000         0.000568940        17.110188976       -14.950474008       -14.949011541         1.519073676
        79           39.500000         0.000842893        25.348981467       -14.950756679       -14.949016132         1.499009265
        80           40.000000         0.001254106        37.715710694       -14.951180900       -14.949023136         1.528254863
        81           40.500000         0.001694647        50.964447880       -14.951636746       -14.949030107         1.952474510
        82           41.000000         0.002057354        61.872414668       -14.952014686       -14.949034780         2.459811488
        83           41.500000         0.002270233        68.274489301       -14.952240911       -14.949035908         1.630410343
        84           42.000000         0.002315829        69.645733016       -14.952297175       -14.949033534         1.633969363
        85           42.500000         0.002230525        67.080320780       -14.952220192       -14.949028822         1.657663681
        86           43.000000         0.002086795        62.757805028       -14.952083597       -14.949023501         1.742461445
        87           43.500000         0.001966516        59.140571924       -14.951970834       -14.949019282         1.516064422
        88           44.000000         0.001934395        58.174551987       -14.951948138       -14.949017403         1.528443433
        89           44.500000         0.002018687        60.709533421       -14.952044872       -14.949018385         1.514579747
        90           45.000000         0.002203356        66.263244699       -14.952245374       -14.949021955         1.499002105
        91           45.500000         0.002432737        73.161586756       -14.952493477       -14.949027140         1.515518175
        92           46.000000         0.002627202        79.009899244       -14.952708210       -14.949032489         1.554130556
        93           46.500000         0.002706184        81.385160458       -14.952807029       -14.949036398         1.542098671
        94           47.000000         0.002613053        78.584370004       -14.952731142       -14.949037533         1.517957026
        95           47.500000         0.002335165        70.227229527       -14.952466146       -14.949035263         1.508546658
        96           48.000000         0.001912403        57.513166578       -14.952051199       -14.949029983         1.512801584
        97           48.500000         0.001429716        42.996968023       -14.951571969       -14.949023157         1.481858307
        98           49.000000         0.000993717        29.884813897       -14.951137128       -14.949016940         1.479978338
        99           49.500000         0.000699535        21.037668206       -14.950844503       -14.949013445         1.521459514
       100           50.000000         0.000599380        18.025608863       -14.950748553       -14.949013878         1.549952714
       101           50.500000         0.000685254        20.608167021       -14.950842157       -14.949017988         1.575374609
       102           51.000000         0.000893464        26.869846974       -14.951060862       -14.949024159         1.477325354
       103           51.500000         0.001129391        33.965038209       -14.951308123       -14.949030089         1.503613744
       104           52.000000         0.001302244        39.163404410       -14.951490997       -14.949033739         1.496683815
       105           52.500000         0.001355907        40.777251511       -14.951551837       -14.949034067         1.476676567
       106           53.000000         0.001284906        38.641963627       -14.951484731       -14.949031263         1.505878834
       107           53.500000         0.001131771        34.036633697       -14.951332864       -14.949026505         1.484329041
       108           54.000000         0.000969212        29.147871830       -14.951170369       -14.949021440         1.509198485
       109           54.500000         0.000874737        26.306641853       -14.951076497       -14.949017656         1.526999148
       110           55.000000         0.000906035        27.247888218       -14.951110533       -14.949016276         1.502710242
       111           55.500000         0.001083583        32.587422740       -14.951294006       -14.949017730         1.519246561
       112           56.000000         0.001384165        41.627056212       -14.951603956       -14.949021684         1.506158028
       113           56.500000         0.001746291        52.517557668       -14.951978304       -14.949027145         1.484974451
       114           57.000000         0.002086113        62.737283901       -14.952331857       -14.949032652         1.477667892
       115           57.500000         0.002320302        69.780241052       -14.952579508       -14.949036633         1.484826628
       116           58.000000         0.002390437        71.889455589       -14.952661049       -14.949037815         1.481006194
       117           58.500000         0.002282107        68.631578370       -14.952560819       -14.949035670         1.500743128
       118           59.000000         0.002032085        61.112482289       -14.952315364       -14.949030710         1.419454666
       119           59.500000         0.001719399        51.708827526       -14.952004726       -14.949024468         1.421392919
       120           60.000000         0.001441162        43.341190614       -14.951728013       -14.949019060         1.420026707
       121           60.500000         0.001280293        38.503230923       -14.951570371       -14.949016409         1.418145258
       122           61.000000         0.001276850        38.399698244       -14.951573377       -14.949017443         1.421040613
       123           61.500000         0.001414608        42.542590991       -14.951720960       -14.949021685         1.406619642
       124           62.000000         0.001628696        48.981035047       -14.951947022       -14.949027448         1.416317977
       125           62.500000         0.001831130        55.068981311       -14.952161564       -14.949032573         1.419158325
       126           63.000000         0.001943463        58.447262325       -14.952284202       -14.949035298         1.424334832
       127           63.500000         0.001923654        57.851535455       -14.952271710       -14.949034865         1.505684236
       128           64.000000         0.001777959        53.469949447       -14.952130188       -14.949031639         1.816190137
       129           64.500000         0.001555559        46.781535309       -14.951909604       -14.949026839         1.721717937
       130           65.000000         0.001329998        39.998068830       -14.951684897       -14.949022041         1.755665403
       131           65.500000         0.001174867        35.332684347       -14.951531226       -14.949018694         1.821154233
       132           66.000000         0.001141320        34.323810015       -14.951501065       -14.949017748         1.802615561
       133           66.500000         0.001243197        37.387619746       -14.951609033       -14.949019498         1.799933515
       134           67.000000         0.001452856        43.692880690       -14.951827480       -14.949023495         1.761006728
       135           67.500000         0.001708325        51.375768401       -14.952093654       -14.949028682         1.788757959
       136           68.000000         0.001930040        58.043585472       -14.952326600       -14.949033616         1.770551542
       137           68.500000         0.002043425        61.453500420       -14.952450051       -14.949036820         1.377005246
       138           69.000000         0.002001662        60.197537442       -14.952415666       -14.949037199         1.392034991
       139           69.500000         0.001802011        54.193289354       -14.952219850       -14.949034452         1.791931693
       140           70.000000         0.001489592        44.797655316       -14.951907938       -14.949029300         1.796467457
       141           70.500000         0.001145555        34.451171444       -14.951562398       -14.949023341         1.788739983
       142           71.000000         0.000861885        25.920139794       -14.951277289       -14.949018605         1.741333187
       143           71.500000         0.000710849        21.377916841       -14.951126864       -14.949016736         1.741931103
       144           72.000000         0.000720526        21.668927226       -14.951140276       -14.949018322         1.764467750
       145           72.500000         0.000866373        26.055099042       -14.951292704       -14.949022636         1.689201273
       146           73.000000         0.001082373        32.551050022       -14.951516687       -14.949027958         1.674490746
       147           73.500000         0.001286923        38.702632798       -14.951728711       -14.949032315         1.741047783
       148           74.000000         0.001412670        42.484312135       -14.951859848       -14.949034255         1.767863981
       149           74.500000         0.001428869        42.971475161       -14.951878634       -14.949033296         1.784969319
       150           75.000000         0.001349111        40.572868508       -14.951798933       -14.949029964         1.711552728
       151           75.500000         0.001223624        36.799005502       -14.951672021       -14.949025486         1.760440759
       152           76.000000         0.001120602        33.700729226       -14.951567534       -14.949021333        12.739171011
       153           76.500000         0.001103514        33.186830646       -14.951550350       -14.949018788         2.208983695
       154           77.000000         0.001211129        36.423230779       -14.951660261       -14.949018640         1.443475097
       155           77.500000         0.001445194        43.462453965       -14.951899413       -14.949021024         1.447897818
       156           78.000000         0.001768404        53.182587804       -14.952230193       -14.949025403         1.452570409
       157           78.500000         0.002113010        63.546189746       -14.952583900       -14.949030666        12.477474235
       158           79.000000         0.002398237        72.124040091       -14.952878379       -14.949035388         3.508085648
       159           79.500000         0.002552579        76.765699322       -14.953040629       -14.949038171         1.124936067
       160           80.000000         0.002535213        76.243442286       -14.953028641       -14.949038082         1.442359114
       161           80.500000         0.002349909        70.670648644       -14.952845712       -14.949035022         1.441227658
       162           81.000000         0.002045848        61.526377699       -14.952541517       -14.949029878         1.488741009
       163           81.500000         0.001703315        51.225120147       -14.952197744       -14.949024331         1.524323557
       164           82.000000         0.001407800        42.337876254       -14.951901719       -14.949020279         1.654501865
       165           82.500000         0.001221305        36.729247817       -14.951716960       -14.949019095         1.913060650
       166           83.000000         0.001161894        34.942552481       -14.951662060       -14.949021051         1.474860953
       167           83.500000         0.001199825        36.083274057       -14.951706582       -14.949025212         1.468996353
       168           84.000000         0.001271711        38.245161079       -14.951785554       -14.949029852         1.441217858
       169           84.500000         0.001306563        39.293297388       -14.951826191       -14.949033178         1.476213302
       170           85.000000         0.001253001        37.682464666       -14.951775813       -14.949034006         1.466875412
       171           85.500000         0.001097497        33.005883561       -14.951620497       -14.949032113         1.460181089
       172           86.000000         0.000868162        26.108909919       -14.951388892       -14.949028190         1.474200502
       173           86.500000         0.000624476        18.780355306       -14.951141698       -14.949023512         1.479209786
       174           87.000000         0.000437863        13.168180190       -14.950951826       -14.949019496         1.498433938
       175           87.500000         0.000369794        11.121115312       -14.950882082       -14.949017310         1.478679799
       176           88.000000         0.000453641        13.642707304       -14.950966663       -14.949017597         1.478186596
       177           88.500000         0.000684629        20.589391969       -14.951200928       -14.949020345         1.504050974
       178           89.000000         0.001020062        30.677113946       -14.951541594       -14.949024893         1.504996041
       179           89.500000         0.001389713        41.793916405       -14.951917288       -14.949030069         1.483010631
       180           90.000000         0.001714157        51.551181694       -14.952247175       -14.949034456         1.479164569
       181           90.500000         0.001926726        57.943911885       -14.952463293       -14.949036773         1.163427236
       182           91.000000         0.001993150        59.941543111       -14.952530592       -14.949036279         1.470630892
       183           91.500000         0.001922485        57.816389354       -14.952458174       -14.949033103         1.476903429
       184           92.000000         0.001764578        53.067521046       -14.952296855       -14.949028311         1.443690514
       185           92.500000         0.001593410        47.919861347       -14.952122244       -14.949023607         1.468147542
       186           93.000000         0.001481089        44.541942197       -14.952008159       -14.949020715         1.496867672
       187           93.500000         0.001471816        44.263058406       -14.951999902       -14.949020690         1.484106699
       188           94.000000         0.001566090        47.098242636       -14.952097986       -14.949023473         1.486696295
       189           94.500000         0.001721627        51.775830236       -14.952259054       -14.949027925         1.483431488
       190           95.000000         0.001870462        56.251858824       -14.952413464       -14.949032323         1.488405138
       191           95.500000         0.001944992        58.493251840       -14.952492002       -14.949035050         1.161127053
       192           96.000000         0.001902536        57.216442600       -14.952451027       -14.949035193         1.467165541
       193           96.500000         0.001739695        52.319207564       -14.952287066       -14.949032773         1.465640409
       194           97.000000         0.001492595        44.887979690       -14.952036960       -14.949028614         1.440548290
       195           97.500000         0.001224492        36.825101490       -14.951765179       -14.949024006         1.405184871
       196           98.000000         0.001005999        30.254186263       -14.951543664       -14.949020287         1.437193437
       197           98.500000         0.000894332        26.895934338       -14.951430710       -14.949018487         1.426629033
       198           99.000000         0.000917207        27.583876487       -14.951454594       -14.949019095         1.426594535
       199           99.500000         0.001065180        32.033991605       -14.951605777       -14.949021958         1.438404463
       200          100.000000         0.001294047        38.916881632       -14.951839327       -14.949026318         1.422607044
       201          100.500000         0.001536755        46.216035330       -14.952087011       -14.949030971         1.371100269
       202          101.000000         0.001722153        51.791645815       -14.952276343       -14.949034564         1.307888458
       203          101.500000         0.001795916        54.009966903       -14.952351889       -14.949035972         1.022995071
       204          102.000000         0.001737634        52.257221718       -14.952292726       -14.949034694         1.366772274
       205          102.500000         0.001568178        47.161023482       -14.952120047       -14.949031093         1.480401913
       206          103.000000         0.001343685        40.409695706       -14.951891140       -14.949026365         1.480224935
       207          103.500000         0.001136972        34.193048075       -14.951680451       -14.949022173         1.456623795
       208          104.000000         0.001012247        30.442077780       -14.951553696       -14.949020025         1.498978719
       209          104.500000         0.001002402        30.146017840       -14.951544514       -14.949020654         1.489559000
       210          105.000000         0.001097815        33.015450844       -14.951642988       -14.949023764         1.490314860
       211          105.500000         0.001251125        37.626046866       -14.951800502       -14.949028099         1.492325231
       212          106.000000         0.001395887        41.979604494       -14.951948972       -14.949032018         1.490696616
       213          106.500000         0.001471462        44.252430519       -14.952026371       -14.949034115         1.491000459
       214          107.000000         0.001444571        43.443716842       -14.951998762       -14.949033708         1.483082514
       215          107.500000         0.001320170        39.702489689       -14.951871314       -14.949030989         1.482581671
       216          108.000000         0.001138937        34.252127564       -14.951685621       -14.949026868         1.503574777
       217          108.500000         0.000963523        28.976772554       -14.951505616       -14.949022627         1.485800343
       218          109.000000         0.000858835        25.828418950       -14.951397454       -14.949019530         1.521109348
       219          109.500000         0.000872480        26.238780147       -14.951409621       -14.949018488         1.541335862
       220          110.000000         0.001020615        30.693732625       -14.951558527       -14.949019820         1.508021098
       221          110.500000         0.001282614        38.573046006       -14.951823175       -14.949023229         1.521900963
       222          111.000000         0.001605795        48.292326113       -14.952149954       -14.949027833         1.501617508
       223          111.500000         0.001919168        57.716622113       -14.952466643       -14.949032372         2.508173568
       224          112.000000         0.002152990        64.748536986       -14.952702293       -14.949035535         1.304952662
       225          112.500000         0.002258997        67.936583738       -14.952807813       -14.949036353         1.495462045
       226          113.000000         0.002225173        66.919346542       -14.952771030       -14.949034552         1.461877821
       227          113.500000         0.002079654        62.543061425       -14.952620725       -14.949030725         1.433008837