       8
 i =        0, time =        0.000, E =       -14.9507520345
  C         0.0000218817        0.0000370329       -0.0000080399
  C        -0.0000569215        0.0000153253       -0.0000505175
  H         0.0005559446       -0.0003400560        0.0002488641
  H         0.0005163265       -0.0001362968        0.0001225295
  H         0.0001623331       -0.0001248424        0.0004371924
  H        -0.0000166064       -0.0001207439        0.0002893650
  H        -0.0004515628       -0.0002549834       -0.0001748800
  H        -0.0003488975        0.0003530180       -0.0002252962
       8
 i =        1, time =        0.500, E =       -14.9505665125
  C        -0.0000004527        0.0000358149       -0.0000071151
  C        -0.0000334911        0.0000152267       -0.0000500020
  H         0.0005529247       -0.0004031488        0.0001305008
  H         0.0005103905       -0.0001997619        0.0002340371
  H         0.0001655327        0.0000172511        0.0004332573
  H        -0.0000227975       -0.0000448199        0.0001587463
  H        -0.0004515501       -0.0001822731       -0.0000511843
  H        -0.0003509543        0.0002050538       -0.0002247266
       8
 i =        2, time =        1.000, E =       -14.9505423979
  C        -0.0000207539        0.0000323511       -0.0000044627
  C        -0.0000098956        0.0000148574       -0.0000485304
  H         0.0005371522       -0.0004508919        0.0000242630
  H         0.0004851430       -0.0002476704        0.0003213736
  H         0.0001659058        0.0001564532        0.0004234370
  H        -0.0000314377        0.0000393915        0.0000158816
  H        -0.0004442370       -0.0001089031        0.0000704920
  H        -0.0003491475        0.0000501014       -0.0002239049
       8
 i =        3, time =        1.500, E =       -14.9506389303
  C        -0.0000382469        0.0000268114       -0.0000001530
  C         0.0000128827        0.0000142350       -0.0000462301
  H         0.0005067765       -0.0004794159       -0.0000625679
  H         0.0004390217       -0.0002762264        0.0003778786
  H         0.0001607560        0.0002830538        0.0004079301
  H        -0.0000391965        0.0001260803       -0.0001292900
  H        -0.0004271885       -0.0000397883        0.0001817963
  H        -0.0003406825       -0.0001013023       -0.0002228795
       8
 i =        4, time =        2.000, E =       -14.9507825196
  C        -0.0000523275        0.0000195005        0.0000056486
  C         0.0000339105        0.0000133817       -0.0000432809
  H         0.0004606547       -0.0004857773       -0.0001240563
  H         0.0003715720       -0.0002829653        0.0003991731
  H         0.0001476209        0.0003879596        0.0003870942
  H        -0.0000427125        0.0002093739       -0.0002667162
  H        -0.0003983694        0.0000204348        0.0002749761
  H        -0.0003229961       -0.0002388531       -0.0002217574
       8
 i =        5, time =        2.500, E =       -14.9508908532
  C        -0.0000626099        0.0000108680        0.0000126732
  C         0.0000523466        0.0000123225       -0.0000399174
  H         0.0003985119       -0.0004682423       -0.0001561568
  H         0.0002836624       -0.0002671282        0.0003838233
  H         0.0001244344        0.0004632290        0.0003614328
  H        -0.0000387579        0.0002835908       -0.0003866702
  H        -0.0003563003        0.0000676884        0.0003433467
  H        -0.0002939101       -0.0003529974       -0.0002206992
       8
 i =        6, time =        3.000, E =       -14.9508998038
  C        -0.0000689698        0.0000015047        0.0000205527
  C         0.0000674873        0.0000110850       -0.0000364324
  H         0.0003210817       -0.0004265581       -0.0001572512
  H         0.0001776301       -0.0002299539        0.0003338571
  H         0.0000897129        0.0005026859        0.0003315706
  H        -0.0000244188        0.0003435215       -0.0004802394
  H        -0.0003002183        0.0000987642        0.0003818018
  H        -0.0002517974       -0.0004355184       -0.0002199090
       8
 i =        7, time =        3.500, E =       -14.9507853547
  C        -0.0000715739       -0.0000078873        0.0000288432
  C         0.0000788174        0.0000096984       -0.0000331737
  H         0.0002301941       -0.0003621572       -0.0001285695
  H         0.0000572919       -0.0001747810        0.0002549389
  H         0.0000427595        0.0005025853        0.0002982162
  H         0.0000026879        0.0003847644       -0.0005399141
  H        -0.0002302298        0.0001116494        0.0003873434
  H        -0.0001957614       -0.0004802016       -0.0002196175
       8
 i =        8, time =        4.000, E =       -14.9505737742
  C        -0.0000708854       -0.0000165567        0.0000370719
  C         0.0000860627        0.0000081949       -0.0000305280
  H         0.0001287702       -0.0002782216       -0.0000743476
  H        -0.0000722380       -0.0001068578        0.0001560273
  H        -0.0000161391        0.0004622360        0.0002621160
  H         0.0000441506        0.0004041208       -0.0005602801
  H        -0.0001474358        0.0001058241        0.0003595550
  H        -0.0001258218       -0.0004835384       -0.0002200541
       8
 i =        9, time =        4.500, E =       -14.9503359626
  C        -0.0000676380       -0.0000237943        0.0000447989
  C         0.0000892374        0.0000066096       -0.0000288877
  H         0.0000206921       -0.0001795518       -0.0000016114
  H        -0.0002049314       -0.0000328328        0.0000484630
  H        -0.0000855584        0.0003844529        0.0002240044
  H         0.0001004707        0.0004000135       -0.0005387554
  H        -0.0000539922        0.0000824583        0.0003009037
  H        -0.0000430760       -0.0004453582       -0.0002214099
       8
 i =       10, time =        5.000, E =       -14.9501666381
  C        -0.0000627782       -0.0000290371        0.0000516827
  C         0.0000886763        0.0000049815       -0.0000286003
  H        -0.0000894564       -0.0000722148        0.0000804669
  H        -0.0003343892        0.0000400164       -0.0000554035
  H        -0.0001628748        0.0002756791        0.0001845608
  H         0.0001707846        0.0003728576       -0.0004762493
  H         0.0000469290        0.0000444368        0.0002167538
  H         0.0000502054       -0.0003692331       -0.0002237925
       8
 i =       11, time =        5.500, E =       -14.9501538122
  C        -0.0000573769       -0.0000319585        0.0000575277
  C         0.0000850373        0.0000033517       -0.0000299081
  H        -0.0001967622        0.0000370057        0.0001615929
  H        -0.0004544517        0.0001046738       -0.0001437891
  H        -0.0002443529        0.0001456327        0.0001443870
  H         0.0002526708        0.0003252794       -0.0003775601
  H         0.0001513023       -0.0000038428        0.0001150034
  H         0.0001505942       -0.0002624879       -0.0002271821
       8
 i =       12, time =        6.000, E =       -14.9503477908
  C        -0.0000525234       -0.0000325189        0.0000623008
  C         0.0000792647        0.0000017612       -0.0000328930
  H        -0.0002964136        0.0001412765        0.0002315897
  H        -0.0005597610        0.0001552094       -0.0002069223
  H        -0.0003254093        0.0000064221        0.0001040104
  H         0.0003421281        0.0002620641       -0.0002513026
  H         0.0002545336       -0.0000569094        0.0000053307
  H         0.0002536725       -0.0001356852       -0.0002314005
       8
 i =       13, time =        6.500, E =       -14.9507404203
  C        -0.0000492170       -0.0000309598        0.0000661132
  C         0.0000725082        0.0000002473       -0.0000374453
  H        -0.0003841206        0.0002343851        0.0002816180
  H        -0.0006461784        0.0001873769       -0.0002380715
  H        -0.0004010406       -0.0001287886        0.0000639132
  H         0.0004338005        0.0001897549       -0.0001092292
  H         0.0003518426       -0.0001088421       -0.0001018618
  H         0.0003543614       -0.0000015664       -0.0002361051
       8
 i =       14, time =        7.000, E =       -14.9512631710
  C        -0.0000482718       -0.0000277438        0.0000691752
  C         0.0000660047       -0.0000011592       -0.0000432701
  H        -0.0004564585        0.0003112970        0.0003051475
  H        -0.0007110110        0.0001989069       -0.0002340215
  H        -0.0004663524       -0.0002473348        0.0000245762
  H         0.0005214644        0.0001159152        0.0000350457
  H         0.0004386872       -0.0001539699       -0.0001966249
  H         0.0004473810        0.0001264172       -0.0002408132
       8
 i =       15, time =        7.500, E =       -14.9518063727
  C        -0.0000502457       -0.0000234620        0.0000717403
  C         0.0000609402       -0.0000024346       -0.0000499329
  H        -0.0005110893        0.0003685223        0.0002985342
  H        -0.0007530504        0.0001895048       -0.0001950243
  H        -0.0005170920       -0.0003385204       -0.0000134795
  H         0.0005987169        0.0000481729        0.0001677195
  H         0.0005111579       -0.0001875182       -0.0002705472
  H         0.0005277682        0.0002357094       -0.0002449566
       8
 i =       16, time =        8.000, E =       -14.9522535181
  C        -0.0000554036       -0.0000187351        0.0000740560
  C         0.0000583166       -0.0000035605       -0.0000569315
  H        -0.0005468486        0.0004042639        0.0002611668
  H        -0.0007724685        0.0001606314       -0.0001243687
  H        -0.0005500829       -0.0003947260       -0.0000496668
  H         0.0006597327       -0.0000067516        0.0002765229
  H         0.0005662869       -0.0002060880       -0.0003175613
  H         0.0005913604        0.0003160771       -0.0002479542
       8
 i =       17, time =        8.500, E =       -14.9525178868
  C        -0.0000637104       -0.0000141319        0.0000763295
  C         0.0000588492       -0.0000045204       -0.0000637723
  H        -0.0005637132        0.0004183736        0.0001952513
  H        -0.0007706289        0.0001151614       -0.0000277442
  H        -0.0005634931       -0.0004119883       -0.0000833334
  H         0.0006999268       -0.0000438221        0.0003521214
  H         0.0006022337       -0.0002079083       -0.0003343707
  H         0.0006351618        0.0003606051       -0.0002492872
       8
 i =       18, time =        9.000, E =       -14.9525679011
  C        -0.0000748537       -0.0000101192        0.0000787115
  C         0.0000629071       -0.0000052969       -0.0000700322
  H        -0.0005626849        0.0004121691        0.0001053583
  H        -0.0007498644        0.0000570080        0.0000874417
  H        -0.0005569144       -0.0003900488       -0.0001137845
  H         0.0007163967       -0.0000601297        0.0003889434
  H         0.0006183396       -0.0001928641       -0.0003204987
  H         0.0006575421        0.0003661360       -0.0002485597
       8
 i =       19, time =        9.500, E =       -14.9524328269
  C        -0.0000882833       -0.0000070415        0.0000812943
  C         0.0000705027       -0.0000058712       -0.0000753930
  H        -0.0005456234        0.0003881740       -0.0000021462
  H        -0.0007132525       -0.0000092321        0.0002127005
  H        -0.0005312780       -0.0003319792       -0.0001403207
  H         0.0007080889       -0.0000549721        0.0003853710
  H         0.0006150721       -0.0001623449       -0.0002780373
  H         0.0006582649        0.0003331906       -0.0002455371
       8
 i =       20, time =       10.000, E =       -14.9521886744
  C        -0.0001032619       -0.0000051238        0.0000841185
  C         0.0000813185       -0.0000062232       -0.0000796497
  H        -0.0005150585        0.0003498322       -0.0001196815
  H        -0.0006644019       -0.0000785912        0.0003390150
  H        -0.0004886591       -0.0002435573       -0.0001622807
  H         0.0006757182       -0.0000296383        0.0003434039
  H         0.0005938899       -0.0001189835       -0.0002112085
  H         0.0006383757        0.0002655040       -0.0002401600
       8
 i =       21, time =       10.500, E =       -14.9519310157
  C        -0.0001189186       -0.0000044856        0.0000871814
  C         0.0000947606       -0.0000063345       -0.0000826989
  H        -0.0004740041        0.0003012309       -0.0002389857
  H        -0.0006072498       -0.0001459981        0.0004573087
  H        -0.0004320310       -0.0001325598       -0.0001790796
  H         0.0006215185        0.0000129793        0.0002680068
  H         0.0005570635       -0.0000663484       -0.0001258489
  H         0.0006000026        0.0001693606       -0.0002325373
       8
 i =       22, time =       11.000, E =       -14.9517445547
  C        -0.0001343025       -0.0000051557        0.0000904438
  C         0.0001100221       -0.0000061904       -0.0000845197
  H        -0.0004257800        0.0002468439       -0.0003515918
  H        -0.0005458595       -0.0002065219        0.0005588713
  H        -0.0003650099       -0.0000080840       -0.0001902401
  H         0.0005489180        0.0000688239        0.0001663496
  H         0.0005074825       -0.0000086402       -0.0000288959
  H         0.0005461218        0.0000528849       -0.0002229281
       8
 i =       23, time =       11.500, E =       -14.9516785028
  C        -0.0001484369       -0.0000070816        0.0000938324
  C         0.0001261475       -0.0000057829       -0.0000851537
  H        -0.0003738376        0.0001912896       -0.0004492657
  H        -0.0004842029       -0.0002556174        0.0006357864
  H        -0.0002916187        0.0001200515       -0.0001954165
  H         0.0004622096        0.0001330845        0.0000470848
  H         0.0004484658        0.0000495866        0.0000720837
  H         0.0004803231       -0.0000746197       -0.0002117174
       8
 i =       24, time =       12.000, E =       -14.9517339249
  C        -0.0001603742       -0.0000101305        0.0000972375
  C         0.0001420929       -0.0000051127       -0.0000846913
  H        -0.0003215796        0.0001390853       -0.0005244370
  H        -0.0004259136       -0.0002893937        0.0006814001
  H        -0.0002160725        0.0002418317       -0.0001944118
  H         0.0003662549        0.0002005388       -0.0000802654
  H         0.0003835793        0.0001036783        0.0001693190
  H         0.0004065942       -0.0002032477       -0.0001993906
       8
 i =       25, time =       12.500, E =       -14.9518655265
  C        -0.0001692569       -0.0000140815        0.0001005090
  C         0.0001567826       -0.0000041898       -0.0000832653
  H        -0.0002721626        0.0000943817       -0.0005706519
  H        -0.0003740094       -0.0003049145        0.0006908423
  H        -0.0001425768        0.0003475334       -0.0001871919
  H         0.0002662304        0.0002658302       -0.0002058127
  H         0.0003164544        0.0001491239        0.0002552397
  H         0.0003291201       -0.0003230024       -0.0001865096
       8
 i =       26, time =       13.000, E =       -14.9519967695
  C        -0.0001743825       -0.0000186168        0.0001034520
  C         0.0001691649       -0.0000030347       -0.0000810510
  H        -0.0002282772        0.0000606640       -0.0005830646
  H        -0.0003305944       -0.0003005141        0.0006615755
  H        -0.0000751166        0.0004282328       -0.0001738956
  H         0.0001673988        0.0003237072       -0.0003197441
  H         0.0002505963        0.0001818055        0.0003228904
  H         0.0002520849       -0.0004242839       -0.0001736863
       8
 i =       27, time =       13.500, E =       -14.9520443429
  C        -0.0001752711       -0.0000233170        0.0001058290
  C         0.0001782715       -0.0000016777       -0.0000782691
  H        -0.0001919119        0.0000404256       -0.0005589444
  H        -0.0002965813       -0.0002760888        0.0005938892
  H        -0.0000172223        0.0004763736       -0.0001548373
  H         0.0000748776        0.0003692582       -0.0004127647
  H         0.0001891723        0.0001982699        0.0003663790
  H         0.0001794600       -0.0004984077       -0.0001615529
       8
 i =       28, time =       14.000, E =       -14.9519454522
  C        -0.0001717265       -0.0000276715        0.0001073707
  C         0.0001832829       -0.0000001572       -0.0000751877
  H        -0.0001641263        0.0000348487       -0.0004981335
  H        -0.0002714991       -0.0002332875        0.0004912183
  H         0.0000282963        0.0004864105       -0.0001305004
  H        -0.0000066235        0.0003981770       -0.0004766044
  H         0.0001347820        0.0001960220        0.0003813568
  H         0.0001147632       -0.0005381852       -0.0001507256
       8
 i =       29, time =       14.500, E =       -14.9516803607
  C        -0.0001638798       -0.0000311135        0.0001078011
  C         0.0001835986        0.0000014829       -0.0000721158
  H        -0.0001448762        0.0000435497       -0.0004033542
  H        -0.0002534587       -0.0001755266        0.0003601441
  H         0.0000596323        0.0004554889       -0.0001015168
  H        -0.0000731140        0.0004070771       -0.0005046248
  H         0.0000892243        0.0001738205        0.0003655015
  H         0.0000607898       -0.0005385676       -0.0001417575
       8
 i =       30, time =       15.000, E =       -14.9512830259
  C        -0.0001522013       -0.0000330810        0.0001068732
  C         0.0001789073        0.0000031976       -0.0000693844
  H        -0.0001329483        0.0000644672       -0.0002802479
  H        -0.0002393379       -0.0001077643        0.0002099712
  H         0.0000762433        0.0003840609       -0.0000686320
  H        -0.0001216792        0.0003938494       -0.0004925199
  H         0.0000532937        0.0001319343        0.0003189332
  H         0.0000193354       -0.0004973057       -0.0001350847
       8
 i =       31, time =       15.500, E =       -14.9508353299
  C        -0.0001374695       -0.0000330999        0.0001044100
  C         0.0001692452        0.0000049447       -0.0000673120
  H        -0.0001260494        0.0000939660       -0.0001370535
  H        -0.0002251938       -0.0000360232        0.0000518686
  H         0.0000790285        0.0002762856       -0.0000326581
  H        -0.0001508439        0.0003580240       -0.0004390333
  H         0.0000266538        0.0000722975        0.0002444607
  H        -0.0000090443       -0.0004155146       -0.0001309686
       8
 i =       32, time =       16.000, E =       -14.9504449109
  C        -0.0001206971       -0.0000308709        0.0001003403
  C         0.0001550272        0.0000066886       -0.0000661560
  H        -0.0001210708        0.0001271879        0.0000160973
  H        -0.0002068428        0.0000332760       -0.0001023170
  H         0.0000703523        0.0001400405        0.0000055761
  H        -0.0001608697        0.0003010592       -0.0003465476
  H         0.0000078385       -0.0000015021        0.0001475521
  H        -0.0000251741       -0.0002979850       -0.0001294473
       8
 i =       33, time =       16.500, E =       -14.9502121152
  C        -0.0001030194       -0.0000263365        0.0000947185
  C         0.0001370356        0.0000084020       -0.0000660606
  H        -0.0001144997        0.0001586216        0.0001681926
  H        -0.0001804936        0.0000940509       -0.0002413582
  H         0.0000538575       -0.0000135928        0.0000452655
  H        -0.0001538909        0.0002264609       -0.0002213564
  H        -0.0000055897       -0.0000844453        0.0000359613
  H        -0.0000312388       -0.0001530915       -0.0001303088
       8
 i =       34, time =       17.000, E =       -14.9501964507
  C        -0.0000855639       -0.0000197070        0.0000877221
  C         0.0001163560        0.0000100647       -0.0000670152
  H        -0.0001029090        0.0001828010        0.0003084983
  H        -0.0001433023        0.0001412214       -0.0003558089
  H         0.0000340562       -0.0001713929        0.0000856517
  H        -0.0001337985        0.0001396351       -0.0000734251
  H        -0.0000167231       -0.0001705183       -0.0000809943
  H        -0.0000305582        0.0000078097       -0.0001330978
       8
 i =       35, time =       17.500, E =       -14.9503948412
  C        -0.0000693228       -0.0000114345        0.0000796296
  C         0.0000942637        0.0000116609       -0.0000688393
  H        -0.0000834273        0.0001949961        0.0004276542
  H        -0.0000937420        0.0001711864       -0.0004388361
  H         0.0000157537       -0.0003194763        0.0001260245
  H        -0.0001058241        0.0000474233        0.0000844653
  H        -0.0000288798       -0.0002533142       -0.0001934183
  H        -0.0000271668        0.0001714878       -0.0001371637
       8
 i =       36, time =       18.000, E =       -14.9507410382
  C        -0.0000550509       -0.0000021431        0.0000707850
  C         0.0000720734        0.0000131761       -0.0000712032
  H        -0.0000541015        0.0001917669        0.0005185215
  H        -0.0000317442        0.0001820580       -0.0004866291
  H         0.0000034137       -0.0004449265        0.0001657077
  H        -0.0000758657       -0.0000426421        0.0002381316
  H        -0.0000451405       -0.0003267033       -0.0002919198
  H        -0.0000252598        0.0003242945       -0.0001417437
       8
 i =       37, time =       18.500, E =       -14.9511276830
  C        -0.0000432014        0.0000074649        0.0000615590
  C         0.0000509846        0.0000145947       -0.0000736813
  H        -0.0000140975        0.0001712965        0.0005766720
  H         0.0000413696        0.0001736645       -0.0004984072
  H         0.0000005981       -0.0005372450        0.0002040409
  H        -0.0000496790       -0.0001232346        0.0003737121
  H        -0.0000679384       -0.0003854539       -0.0003686044
  H        -0.0000286165        0.0004537110       -0.0001460657
       8
 i =       38, time =       19.000, E =       -14.9514429548
  C        -0.0000339075        0.0000167011        0.0000523165
  C         0.0000319491        0.0000158992       -0.0000758225
  H         0.0000362694        0.0001334820        0.0006005086
  H         0.0001231043        0.0001473773       -0.0004761271
  H         0.0000095875       -0.0005893638        0.0002403692
  H        -0.0000321144       -0.0001880944        0.0004793388
  H        -0.0000987749       -0.0004257052       -0.0004178093
  H        -0.0000401169        0.0005496874       -0.0001494498
       8
 i =       39, time =       19.500, E =       -14.9516074843
  C        -0.0000270022        0.0000249610        0.0000433931
  C         0.0000155878        0.0000170720       -0.0000772186
  H         0.0000956430        0.0000798166        0.0005910798
  H         0.0002100830        0.0001058359       -0.0004240155
  H         0.0000312293       -0.0005980938        0.0002740472
  H        -0.0000265609       -0.0002326775        0.0005464118
  H        -0.0001380932       -0.0004452333       -0.0004364937
  H        -0.0000614361        0.0006055481       -0.0001513875
       8
 i =       40, time =       20.000, E =       -14.9515977846
  C        -0.0000220670        0.0000317652        0.0000350815
  C         0.0000021637        0.0000180959       -0.0000775533
  H         0.0001618243        0.0000131344        0.0005516915
  H         0.0002983562        0.0000526339       -0.0003480353
  H         0.0000649966       -0.0005640379        0.0003044571
  H        -0.0000346819       -0.0002544894        0.0005702701
  H        -0.0001853017       -0.0004435050       -0.0004242819
  H        -0.0000929475        0.0006183625       -0.0001515869
       8
 i =       41, time =       20.500, E =       -14.9514490551
  C        -0.0000184955        0.0000367724        0.0000276264
  C        -0.0000083956        0.0000189558       -0.0000766249
  H         0.0002320072       -0.0000627139        0.0004874263
  H         0.0003836861       -0.0000079897       -0.0002553610
  H         0.0001091952       -0.0004911183        0.0003310347
  H        -0.0000564399       -0.0002531004        0.0005502398
  H        -0.0002389106       -0.0004215580       -0.0003832314
  H        -0.0001338073        0.0005888273       -0.0001499821
       8
 i =       42, time =       21.000, E =       -14.9512387891
  C        -0.0000155603        0.0000397738        0.0000212220
  C        -0.0000164405        0.0000196384       -0.0000743457
  H         0.0003030121       -0.0001431919        0.0004046474
  H         0.0004617930       -0.0000714322       -0.0001538970
  H         0.0001612428       -0.0003858992        0.0003532966
  H        -0.0000903286       -0.0002299182        0.0004892092
  H        -0.0002967315       -0.0003817683       -0.0003174276
  H        -0.0001821602        0.0005208023       -0.0001467151
       8
 i =       43, time =       21.500, E =       -14.9510589036
  C        -0.0000124768        0.0000406797        0.0000160120
  C        -0.0000225275        0.0000201324       -0.0000707273
  H         0.0003714992       -0.0002233869        0.0003105297
  H         0.0005285696       -0.0001329846       -0.0000518335
  H         0.0002179571       -0.0002568622        0.0003708644
  H        -0.0001337095       -0.0001878291        0.0003929397
  H        -0.0003560972       -0.0003275628       -0.0002325008
  H        -0.0002353995        0.0004206656       -0.0001421018
       8
 i =       44, time =       22.000, E =       -14.9509862582
  C        -0.0000084601        0.0000395070        0.0000120865
  C        -0.0000273468        0.0000204281       -0.0000658597
  H         0.0004341549       -0.0002982865        0.0002126354
  H         0.0005802738       -0.0001880764        0.0000427852
  H         0.0002758132       -0.0001137331        0.0003834818
  H        -0.0001831633       -0.0001308042        0.0002693052
  H        -0.0004140727       -0.0002631222       -0.0001351414
  H        -0.0002904285        0.0002966319       -0.0001365899
       8
 i =       45, time =       22.500, E =       -14.9510600147
  C        -0.0000027753        0.0000363721        0.0000094766
  C        -0.0000316583        0.0000205164       -0.0000598934
  H         0.0004878569       -0.0003630305        0.0001185170
  H         0.0006137198       -0.0002325258        0.0001225096
  H         0.0003311600        0.0000331022        0.0003910261
  H        -0.0002348004       -0.0000635399        0.0001275902
  H        -0.0004676428       -0.0001930992       -0.0000326501
  H        -0.0003438933        0.0001581154       -0.0001307206
       8
 i =       46, time =       23.000, E =       -14.9512711627
  C         0.0000052155        0.0000314910        0.0000081460
  C        -0.0000362383        0.0000203894       -0.0000530275
  H         0.0005298310       -0.0004131569        0.0000353179
  H         0.0006264773       -0.0002628099        0.0001809774
  H         0.0003804000        0.0001731102        0.0003935148
  H        -0.0002845129        0.0000088432       -0.0000221014
  H        -0.0005138793       -0.0001223529        0.0000674753
  H        -0.0003923818        0.0000151689       -0.0001250935
       8
 i =       47, time =       23.500, E =       -14.9515658966
  C         0.0000160093        0.0000251841        0.0000079813
  C        -0.0000418352        0.0000200396       -0.0000455035
  H         0.0005578086       -0.0004448583       -0.0000306542
  H         0.0006170793       -0.0002763559        0.0002134504
  H         0.0004201531        0.0002961029        0.0003911061
  H        -0.0003281751        0.0000810496       -0.0001693397
  H        -0.0005500933       -0.0000556919        0.0001579324
  H        -0.0004325950       -0.0001220224       -0.0001203360
       8
 i =       48, time =       24.000, E =       -14.9518614202
  C         0.0000299189        0.0000178784        0.0000087869
  C        -0.0000491298        0.0000194611       -0.0000376039
  H         0.0005701860       -0.0004552562       -0.0000743945
  H         0.0005852158       -0.0002718317        0.0002173584
  H         0.0004474245        0.0003927680        0.0003840932
  H        -0.0003618191        0.0001478348       -0.0003038186
  H        -0.0005739846        0.0000023935        0.0002320168
  H        -0.0004615089       -0.0002436380       -0.0001170736
       8
 i =       49, time =       24.500, E =       -14.9520701065
  C         0.0000470336        0.0000101005        0.0000102875
  C        -0.0000586947        0.0000186500       -0.0000296518
  H         0.0005661789       -0.0004426811       -0.0000926875
  H         0.0005318808       -0.0002493914        0.0001927621
  H         0.0004597932        0.0004552818        0.0003728881
  H        -0.0003818151        0.0002042432       -0.0004158317
  H        -0.0005837906        0.0000480197        0.0002840489
  H        -0.0004765419       -0.0003407573       -0.0001158961
       8
 i =       50, time =       25.000, E =       -14.9521260025
  C         0.0000671883        0.0000024502        0.0000121474
  C        -0.0000709514        0.0000176063       -0.0000220040
  H         0.0005459476       -0.0004069250       -0.0000845560
  H         0.0004594214       -0.0002108089        0.0001426140
  H         0.0004556234        0.0004780072        0.0003579916
  H        -0.0003850811        0.0002458899       -0.0004968320