 DBCSR| CPU Multiplication driver                                           XSMM
 DBCSR| Multrec recursion limit                                              512
 DBCSR| Multiplication stack size                                           1000
 DBCSR| Maximum elements for images                                    UNLIMITED
 DBCSR| Multiplicative factor virtual images                                   1
 DBCSR| Use multiplication densification                                       T
 DBCSR| Multiplication size stacks                                             3
 DBCSR| Use memory pool for CPU allocation                                     F
 DBCSR| Number of 3D layers                                               SINGLE
 DBCSR| Use MPI memory allocation                                              F
 DBCSR| Use RMA algorithm                                                      F
 DBCSR| Use Communication thread                                               T
 DBCSR| Communication thread load                                             87
 DBCSR| MPI: My node id                                                        0
 DBCSR| MPI: Number of nodes                                                  24
 DBCSR| OMP: Current number of threads                                         1
 DBCSR| OMP: Max number of threads                                             1
 DBCSR| Split modifier for TAS multiplication algorithm                  1.0E+00


  **** **** ******  **  PROGRAM STARTED AT               2021-09-18 17:14:59.400
 ***** ** ***  *** **   PROGRAM STARTED ON                                 node1
 **    ****   ******    PROGRAM STARTED BY                               lujunbo
 ***** **    ** ** **   PROGRAM PROCESS ID                                397366
  **** **  *******  **  PROGRAM STARTED IN /home/lujunbo/WORK/deepmd/c2h6/cp2k_m
                                           d

 CP2K| version string:                                          CP2K version 8.2
 CP2K| source code revision number:                                  git:310b7ab
 CP2K| cp2kflags: omp libint fftw3 libxc elpa parallel mpi3 scalapack xsmm plume
 CP2K|            d2 spglib mkl libvori libbqb
 CP2K| is freely available from                            https://www.cp2k.org/
 CP2K| Program compiled at                          Tue Jun  1 15:18:23 CST 2021
 CP2K| Program compiled on                                                   mgr
 CP2K| Program compiled for                                                local
 CP2K| Data directory path                       /home/lujunbo/bin/cp2k-8.2/data
 CP2K| Input file name                                             cp2k-aimd.inp

 GLOBAL| Force Environment number                                              1
 GLOBAL| Basis set file name            /home/lujunbo/bin/cp2k-8.2/data/BASIS_MO
 GLOBAL| Potential file name            /home/lujunbo/bin/cp2k-8.2/data/POTENTIA
 GLOBAL| MM Potential file name                                     MM_POTENTIAL
 GLOBAL| Coordinate file name                                           init.xyz
 GLOBAL| Method name                                                        CP2K
 GLOBAL| Project name                                                       test
 GLOBAL| Run type                                                             MD
 GLOBAL| FFT library                                                       FFTW3
 GLOBAL| Diagonalization library                                            ELPA
 GLOBAL| Minimum number of eigenvectors for ELPA usage                        16
 GLOBAL| Orthonormality check for eigenvectors                          DISABLED
 GLOBAL| Matrix multiplication library                                    SCALAP
 GLOBAL| All-to-all communication in single precision                          F
 GLOBAL| FFTs using library dependent lengths                                  F
 GLOBAL| Grid backend                                                       AUTO
 GLOBAL| Global print level                                                  LOW
 GLOBAL| MPI I/O enabled                                                       T
 GLOBAL| Total number of message passing processes                            24
 GLOBAL| Number of threads for this process                                    1
 GLOBAL| This output is from process                                           0
 GLOBAL| CPU model name             Intel(R) Xeon(R) Platinum 9242 CPU @ 2.30GHz
 GLOBAL| CPUID                                                              1003

 MEMORY| system memory details [Kb]
 MEMORY|                        rank 0           min           max       average
 MEMORY| MemTotal            394662760     394662760     394662760     394662760
 MEMORY| MemFree             269126520     269126520     269126520     269126520
 MEMORY| Buffers                200092        200092        200092        200092
 MEMORY| Cached               95085240      95085240      95085240      95085240
 MEMORY| Slab                  1817600       1817600       1817600       1817600
 MEMORY| SReclaimable          1271640       1271640       1271640       1271640
 MEMORY| MemLikelyFree       365683492     365683492     365683492     365683492


 GENERATE|  Preliminary Number of Bonds generated:                             0
 GENERATE|  Achieved consistency in connectivity generation.

 *******************************************************************************
 *******************************************************************************
 **                                                                           **
 **     #####                         ##              ##                      **
 **    ##   ##            ##          ##              ##                      **
 **   ##     ##                       ##            ######                    **
 **   ##     ##  ##   ##  ##   #####  ##  ##   ####   ##    #####    #####    **
 **   ##     ##  ##   ##  ##  ##      ## ##   ##      ##   ##   ##  ##   ##   **
 **   ##  ## ##  ##   ##  ##  ##      ####     ###    ##   ######   ######    **
 **    ##  ###   ##   ##  ##  ##      ## ##      ##   ##   ##       ##        **
 **     #######   #####   ##   #####  ##  ##  ####    ##    #####   ##        **
 **           ##                                                    ##        **
 **                                                                           **
 **                                                ... make the atoms dance   **
 **                                                                           **
 **            Copyright (C) by CP2K developers group (2000-2021)             **
 **                      J. Chem. Phys. 152, 194103 (2020)                    **
 **                                                                           **
 *******************************************************************************


 TOTAL NUMBERS AND MAXIMUM NUMBERS

  Total number of            - Atomic kinds:                                   2
                             - Atoms:                                          8
                             - Shell sets:                                     8
                             - Shells:                                        28
                             - Primitive Cartesian functions:                 40
                             - Cartesian basis functions:                     58
                             - Spherical basis functions:                     56

  Maximum angular momentum of- Orbital basis functions:                        2
                             - Local part of the GTH pseudopotential:          2
                             - Non-local part of the GTH pseudopotential:      0


 SCF PARAMETERS         Density guess:                                   RESTART
                        --------------------------------------------------------
                        max_scf:                                             100
                        max_scf_history:                                       0
                        max_diis:                                              4
                        --------------------------------------------------------
                        eps_scf:                                        1.00E-06
                        eps_scf_history:                                0.00E+00
                        eps_diis:                                       1.00E-01
                        eps_eigval:                                     1.00E-05
                        --------------------------------------------------------
                        level_shift [a.u.]:                                 0.00
                        --------------------------------------------------------
                        Outer loop SCF in use 
                        No variables optimised in outer loop
                        eps_scf                                         1.00E-06
                        max_scf                                                6
                        No outer loop optimization
                        step_size                                       5.00E-01

 MD_PAR| Molecular dynamics protocol (MD input parameters)
 MD_PAR| Ensemble type                                                       NVT
 MD_PAR| Number of time steps                                               1000
 MD_PAR| Time step [fs]                                                 0.500000
 MD_PAR| Temperature [K]                                               50.000000
 MD_PAR| Temperature tolerance [K]                                      0.000000
 MD_PAR| Print MD information every                                    1 step(s)
 MD_PAR| File type   Print frequency [steps]                          File names
 MD_PAR| Coordinates          1                                   test-pos-1.xyz
 MD_PAR| Velocities           1                                   test-vel-1.xyz
 MD_PAR| Energies             1                                      test-1.ener
 MD_PAR| Dump                 5                                   test-1.restart

 ROT| Rotational analysis information
 ROT| Principal axes and moments of inertia [a.u.]
 ROT|                           1                   2                   3
 ROT| Eigenvalues      4.11977242215E+04   1.65454599539E+05   1.65477009529E+05
 ROT|      x             -0.926782214237      0.047254003568      0.372614796433
 ROT|      y             -0.368995756501     -0.299754122363     -0.879766786035
 ROT|      z             -0.070120318438      0.952845488667     -0.295243316045
 ROT| Number of rotovibrational vectors                                        6

 DOF| Calculation of degrees of freedom
 DOF| Number of atoms                                                          8
 DOF| Number of intramolecular constraints                                     0
 DOF| Number of intermolecular constraints                                     0
 DOF| Invariants (translations + rotations)                                    3
 DOF| Degrees of freedom                                                      21

 DOF| Restraints information
 DOF| Number of intramolecular restraints                                      0
 DOF| Number of intermolecular restraints                                      0

 THERMOSTAT| Thermostat information for PARTICLES
 THERMOSTAT| Type of thermostat                               Nose-Hoover-Chains
 THERMOSTAT| Nose-Hoover-Chain length                                          3
 THERMOSTAT| Nose-Hoover-Chain time constant [fs]                      50.000000
 THERMOSTAT| Order of Yoshida integrator                                       3
 THERMOSTAT| Number of multiple time steps                                     2
 THERMOSTAT| Initial potential energy                         0.000000000000E+00
 THERMOSTAT| Initial kinetic energy                           0.791703835822E-04
 THERMOSTAT| End of thermostat information for PARTICLES

 MD_VEL| Velocities initialization
 MD_VEL| Initial temperature [K]                                       50.000000
 MD_VEL| COM velocity             0.0000000000     0.0000000000    -0.0000000000

 Number of electrons:                                                         14
 Number of occupied orbitals:                                                  7
 Number of molecular orbitals:                                                 7

 Number of orbital functions:                                                 56
 Number of independent orbital functions:                                     56

 Extrapolation method: initial_guess

 *** WARNING in qs_initial_guess.F:309 :: User requested to restart the    ***
 *** wavefunction from the file named: ./cp2k-RESTART.wfn. This file does  ***
 *** not exist. Please check the existence of the file or change properly  ***
 *** the value of the keyword WFN_RESTART_FILE_NAME. Calculation continues ***
 *** using ATOMIC GUESS.                                                   ***



 SCF WAVEFUNCTION OPTIMIZATION

  ----------------------------------- OT ---------------------------------------
  Minimizer      : CG                  : conjugate gradient
  Preconditioner : FULL_ALL            : diagonalization, state selective
  Precond_solver : DEFAULT
  Line search    : 2PNT                : 2 energies, one gradient
  stepsize       :    0.15000000                  energy_gap     :    0.08000000
  eps_taylor     :   0.10000E-15                  max_taylor     :             4
  ----------------------------------- OT ---------------------------------------

  Step     Update method      Time    Convergence         Total energy    Change
  ------------------------------------------------------------------------------
     1 OT CG       0.15E+00    0.2     0.24724026       -13.8703404094 -1.39E+01
     2 OT LS       0.72E-01    0.1                      -13.7191395890
     3 OT CG       0.72E-01    0.2     0.10523393       -14.7228346946 -8.52E-01
     4 OT LS       0.90E-01    0.1                      -14.8735272257
     5 OT CG       0.90E-01    0.2     0.06697362       -14.8787206135 -1.56E-01
     6 OT LS       0.68E-01    0.1                      -14.9313604375
     7 OT CG       0.68E-01    0.2     0.02780984       -14.9383144422 -5.96E-02
     8 OT LS       0.66E-01    0.1                      -14.9483415015
     9 OT CG       0.66E-01    0.2     0.01301571       -14.9483463278 -1.00E-02
    10 OT LS       0.13E+00    0.1                      -14.9516037328
    11 OT CG       0.13E+00    0.2     0.00593443       -14.9525704774 -4.22E-03
    12 OT LS       0.75E-01    0.1                      -14.9528267433
    13 OT CG       0.75E-01    0.2     0.00268639       -14.9530853919 -5.15E-04
    14 OT LS       0.64E-01    0.1                      -14.9531742545
    15 OT CG       0.64E-01    0.2     0.00118247       -14.9531765432 -9.12E-05
    16 OT LS       0.11E+00    0.1                      -14.9532011667
    17 OT CG       0.11E+00    0.2     0.00047536       -14.9532057075 -2.92E-05
    18 OT LS       0.99E-01    0.1                      -14.9532100585
    19 OT CG       0.99E-01    0.2     0.00030962       -14.9532100845 -4.38E-06
    20 OT LS       0.68E-01    0.1                      -14.9532110934
    21 OT CG       0.68E-01    0.2     0.00013284       -14.9532113591 -1.27E-06
    22 OT LS       0.99E-01    0.1                      -14.9532116670
    23 OT CG       0.99E-01    0.2     0.00005227       -14.9532117003 -3.41E-07
    24 OT LS       0.11E+00    0.1                      -14.9532117590
    25 OT CG       0.11E+00    0.2     0.00003667       -14.9532117597 -5.95E-08
    26 OT LS       0.62E-01    0.1                      -14.9532117656
    27 OT CG       0.62E-01    0.2     0.00001230       -14.9532117760 -1.63E-08
    28 OT LS       0.11E+00    0.1                      -14.9532117786
    29 OT CG       0.11E+00    0.2     0.00000569       -14.9532117792 -3.16E-09
    30 OT LS       0.96E-01    0.1                      -14.9532117798
    31 OT CG       0.96E-01    0.2     0.00000362       -14.9532117798 -6.11E-10
    32 OT LS       0.66E-01    0.1                      -14.9532117799
    33 OT CG       0.66E-01    0.2     0.00000137       -14.9532117799 -1.70E-10
    34 OT LS       0.94E-01    0.1                      -14.9532117800
    35 OT CG       0.94E-01    0.2     0.00000059       -14.9532117800 -3.50E-11

  *** SCF run converged in    35 steps ***


  Electronic density on regular grids:        -14.0000000000        0.0000000000
  Core density on regular grids:               13.9999999989       -0.0000000011
  Total charge density on r-space grids:       -0.0000000010
  Total charge density g-space grids:          -0.0000000010

  Overlap energy of the core charge distribution:               0.00000146032043
  Self energy of the core charge distribution:                -35.13285960674677
  Core Hamiltonian energy:                                     11.39123307263072
  Hartree energy:                                              14.44219445428206
  Exchange-correlation energy:                                 -5.65378116045905

  Total energy:                                               -14.95321177997262

  outer SCF iter =    1 RMS gradient =   0.59E-06 energy =        -14.9532117800
  outer SCF loop converged in   1 iterations or   35 steps


 ENERGY| Total FORCE_EVAL ( QS ) energy [a.u.]:              -14.953211779979425

 MD_INI| MD initialization
 MD_INI| Potential energy [hartree]                          -0.149532117800E+02
 MD_INI| Kinetic energy [hartree]                             0.166257805523E-02
 MD_INI| Temperature [K]                                               50.000000
 MD_INI| Cell volume [bohr^3]                                 6.748334583090E+03
 MD_INI| Cell volume [ang^3]                                  1.000000000000E+03
 MD_INI| Cell lengths [bohr]      1.88972613E+01  1.88972613E+01  1.88972613E+01
 MD_INI| Cell lengths [ang]       1.00000000E+01  1.00000000E+01  1.00000000E+01
 MD_INI| Cell angles [deg]        9.00000000E+01  9.00000000E+01  9.00000000E+01

 Number of electrons:                                                         14
 Number of occupied orbitals:                                                  7
 Number of molecular orbitals:                                                 7

 Number of orbital functions:                                                 56
 Number of independent orbital functions:                                     56

 Extrapolation method: ASPC


 SCF WAVEFUNCTION OPTIMIZATION

  ----------------------------------- OT ---------------------------------------
  Minimizer      : CG                  : conjugate gradient
  Preconditioner : FULL_ALL            : diagonalization, state selective
  Precond_solver : DEFAULT
  Line search    : 2PNT                : 2 energies, one gradient
  stepsize       :    0.15000000                  energy_gap     :    0.08000000
  eps_taylor     :   0.10000E-15                  max_taylor     :             4
  ----------------------------------- OT ---------------------------------------

  Step     Update method      Time    Convergence         Total energy    Change
  ------------------------------------------------------------------------------
     1 OT CG       0.15E+00    0.2     0.00052079       -14.9531272517 -1.50E+01
     2 OT LS       0.21E+00    0.1                      -14.9531373850
     3 OT CG       0.21E+00    0.2     0.00020592       -14.9531381868 -1.09E-05
     4 OT LS       0.12E+00    0.1                      -14.9531387624
     5 OT CG       0.12E+00    0.2     0.00002170       -14.9531392146 -1.03E-06
     6 OT LS       0.19E+00    0.1                      -14.9531392298
     7 OT CG       0.19E+00    0.2     0.00000411       -14.9531392317 -1.71E-08
     8 OT LS       0.17E+00    0.1                      -14.9531392323
     9 OT CG       0.17E+00    0.2     0.00000127       -14.9531392323 -5.47E-10
    10 OT LS       0.13E+00    0.1                      -14.9531392323
    11 OT CG       0.13E+00    0.2     0.00000019       -14.9531392323 -4.05E-11

  *** SCF run converged in    11 steps ***


  Electronic density on regular grids:        -14.0000000000        0.0000000000
  Core density on regular grids:               13.9999999989       -0.0000000011
  Total charge density on r-space grids:       -0.0000000010
  Total charge density g-space grids:          -0.0000000010

  Overlap energy of the core charge distribution:               0.00000149244975
  Self energy of the core charge distribution:                -35.13285960674677
  Core Hamiltonian energy:                                     11.39738693405603
  Hartree energy:                                              14.43802936946962
  Exchange-correlation energy:                                 -5.65569742154270

  Total energy:                                               -14.95313923231407

  outer SCF iter =    1 RMS gradient =   0.19E-06 energy =        -14.9531392323
  outer SCF loop converged in   1 iterations or   11 steps


 ENERGY| Total FORCE_EVAL ( QS ) energy [a.u.]:              -14.953139232315300

 MD| ***************************************************************************
 MD| Step number                                                               1
 MD| Time [fs]                                                          0.500000
 MD| Conserved quantity [hartree]                            -0.149514693995E+02
 MD| ---------------------------------------------------------------------------
 MD|                                          Instantaneous             Averages
 MD| CPU time per MD step [s]                      7.179773             7.179773
 MD| Energy drift per atom [K]           0.249467337431E-01   0.000000000000E+00
 MD| Potential energy [hartree]         -0.149531392323E+02  -0.149531392323E+02
 MD| Kinetic energy [hartree]            0.158363634933E-02   0.158363634933E-02
 MD| Temperature [K]                              47.625925            47.625925
 MD| ***************************************************************************

 Number of electrons:                                                         14
 Number of occupied orbitals:                                                  7
 Number of molecular orbitals:                                                 7

 Number of orbital functions:                                                 56
 Number of independent orbital functions:                                     56

 Extrapolation method: ASPC


 SCF WAVEFUNCTION OPTIMIZATION

  ----------------------------------- OT ---------------------------------------
  Minimizer      : CG                  : conjugate gradient
  Preconditioner : FULL_ALL            : diagonalization, state selective
  Precond_solver : DEFAULT
  Line search    : 2PNT                : 2 energies, one gradient
  stepsize       :    0.15000000                  energy_gap     :    0.08000000
  eps_taylor     :   0.10000E-15                  max_taylor     :             4
  ----------------------------------- OT ---------------------------------------

  Step     Update method      Time    Convergence         Total energy    Change
  ------------------------------------------------------------------------------
     1 OT CG       0.15E+00    0.2     0.00003618       -14.9529874584 -1.50E+01
     2 OT LS       0.20E+00    0.1                      -14.9529875062
     3 OT CG       0.20E+00    0.2     0.00001456       -14.9529875092 -5.08E-08
     4 OT LS       0.13E+00    0.1                      -14.9529875130
     5 OT CG       0.13E+00    0.2     0.00000186       -14.9529875146 -5.35E-09
     6 OT LS       0.18E+00    0.1                      -14.9529875147
     7 OT CG       0.18E+00    0.2     0.00000033       -14.9529875147 -1.21E-10

  *** SCF run converged in     7 steps ***


  Electronic density on regular grids:        -14.0000000000        0.0000000000
  Core density on regular grids:               13.9999999989       -0.0000000011
  Total charge density on r-space grids:       -0.0000000010
  Total charge density g-space grids:          -0.0000000010

  Overlap energy of the core charge distribution:               0.00000153431634
  Self energy of the core charge distribution:                -35.13285960674677
  Core Hamiltonian energy:                                     11.40388236813045
  Hartree energy:                                              14.43369228386432
  Exchange-correlation energy:                                 -5.65770409423580

  Total energy:                                               -14.95298751467146

  outer SCF iter =    1 RMS gradient =   0.33E-06 energy =        -14.9529875147
  outer SCF loop converged in   1 iterations or    7 steps


 ENERGY| Total FORCE_EVAL ( QS ) energy [a.u.]:              -14.952987514675456

 MD| ***************************************************************************
 MD| Step number                                                               2
 MD| Time [fs]                                                          1.000000
 MD| Conserved quantity [hartree]                            -0.149514676118E+02
 MD| ---------------------------------------------------------------------------
 MD|                                          Instantaneous             Averages
 MD| CPU time per MD step [s]                      1.236662             4.208218
 MD| Energy drift per atom [K]           0.955118973488E-01   0.477559486744E-01
 MD| Potential energy [hartree]         -0.149529875147E+02  -0.149530633735E+02
 MD| Kinetic energy [hartree]            0.142719760108E-02   0.150541697520E-02
 MD| Temperature [K]                              42.921221            45.273573
 MD| ***************************************************************************

 Number of electrons:                                                         14
 Number of occupied orbitals:                                                  7
 Number of molecular orbitals:                                                 7

 Number of orbital functions:                                                 56
 Number of independent orbital functions:                                     56

 Extrapolation method: ASPC


 SCF WAVEFUNCTION OPTIMIZATION

  ----------------------------------- OT ---------------------------------------
  Minimizer      : CG                  : conjugate gradient
  Preconditioner : FULL_ALL            : diagonalization, state selective
  Precond_solver : DEFAULT
  Line search    : 2PNT                : 2 energies, one gradient
  stepsize       :    0.15000000                  energy_gap     :    0.08000000
  eps_taylor     :   0.10000E-15                  max_taylor     :             4
  ----------------------------------- OT ---------------------------------------

  Step     Update method      Time    Convergence         Total energy    Change
  ------------------------------------------------------------------------------
     1 OT CG       0.15E+00    0.2     0.00004651       -14.9527852270 -1.50E+01
     2 OT LS       0.20E+00    0.1                      -14.9527853061
     3 OT CG       0.20E+00    0.2     0.00001888       -14.9527853110 -8.40E-08
     4 OT LS       0.13E+00    0.1                      -14.9527853173
     5 OT CG       0.13E+00    0.2     0.00000212       -14.9527853200 -8.97E-09
     6 OT LS       0.19E+00    0.1                      -14.9527853201
     7 OT CG       0.19E+00    0.2     0.00000040       -14.9527853202 -1.68E-10

  *** SCF run converged in     7 steps ***


  Electronic density on regular grids:        -14.0000000000        0.0000000000
  Core density on regular grids:               13.9999999989       -0.0000000011
  Total charge density on r-space grids:       -0.0000000010
  Total charge density g-space grids:          -0.0000000010

  Overlap energy of the core charge distribution:               0.00000158015192
  Self energy of the core charge distribution:                -35.13285960674677
  Core Hamiltonian energy:                                     11.41031412617393
  Hartree energy:                                              14.42943767235689
  Exchange-correlation energy:                                 -5.65967909209188

  Total energy:                                               -14.95278532015590

  outer SCF iter =    1 RMS gradient =   0.40E-06 energy =        -14.9527853202
  outer SCF loop converged in   1 iterations or    7 steps


 ENERGY| Total FORCE_EVAL ( QS ) energy [a.u.]:              -14.952785320161318

 MD| ***************************************************************************
 MD| Step number                                                               3
 MD| Time [fs]                                                          1.500000
 MD| Conserved quantity [hartree]                            -0.149514651703E+02
 MD| ---------------------------------------------------------------------------
 MD|                                          Instantaneous             Averages
 MD| CPU time per MD step [s]                      1.268478             3.228304
 MD| Energy drift per atom [K]           0.191882680496E+00   0.957981926148E-01
 MD| Potential energy [hartree]         -0.149527853202E+02  -0.149529706891E+02
 MD| Kinetic energy [hartree]            0.122174883030E-02   0.141086092690E-02
 MD| Temperature [K]                              36.742601            42.429915
 MD| ***************************************************************************

 Number of electrons:                                                         14
 Number of occupied orbitals:                                                  7
 Number of molecular orbitals:                                                 7

 Number of orbital functions:                                                 56
 Number of independent orbital functions:                                     56

 Extrapolation method: ASPC


 SCF WAVEFUNCTION OPTIMIZATION

  ----------------------------------- OT ---------------------------------------
  Minimizer      : CG                  : conjugate gradient
  Preconditioner : FULL_ALL            : diagonalization, state selective
  Precond_solver : DEFAULT
  Line search    : 2PNT                : 2 energies, one gradient
  stepsize       :    0.15000000                  energy_gap     :    0.08000000
  eps_taylor     :   0.10000E-15                  max_taylor     :             4
  ----------------------------------- OT ---------------------------------------

  Step     Update method      Time    Convergence         Total energy    Change
  ------------------------------------------------------------------------------
     1 OT CG       0.15E+00    0.2     0.00004430       -14.9525713395 -1.50E+01
     2 OT LS       0.20E+00    0.1                      -14.9525714109
     3 OT CG       0.20E+00    0.2     0.00001809       -14.9525714152 -7.57E-08
     4 OT LS       0.13E+00    0.1                      -14.9525714212
     5 OT CG       0.13E+00    0.2     0.00000203       -14.9525714235 -8.28E-09
     6 OT LS       0.19E+00    0.1                      -14.9525714236
     7 OT CG       0.19E+00    0.2     0.00000039       -14.9525714236 -1.54E-10

  *** SCF run converged in     7 steps ***


  Electronic density on regular grids:        -14.0000000000        0.0000000000
  Core density on regular grids:               13.9999999989       -0.0000000011
  Total charge density on r-space grids:       -0.0000000010
  Total charge density g-space grids:          -0.0000000010

  Overlap energy of the core charge distribution:               0.00000162279326
  Self energy of the core charge distribution:                -35.13285960674677
  Core Hamiltonian energy:                                     11.41626157377211
  Hartree energy:                                              14.42552245599314
  Exchange-correlation energy:                                 -5.66149746945668

  Total energy:                                               -14.95257142364495

  outer SCF iter =    1 RMS gradient =   0.39E-06 energy =        -14.9525714236
  outer SCF loop converged in   1 iterations or    7 steps


 ENERGY| Total FORCE_EVAL ( QS ) energy [a.u.]:              -14.952571423649834

 MD| ***************************************************************************
 MD| Step number                                                               4
 MD| Time [fs]                                                          2.000000
 MD| Conserved quantity [hartree]                            -0.149514627714E+02
 MD| ---------------------------------------------------------------------------
 MD|                                          Instantaneous             Averages
 MD| CPU time per MD step [s]                      1.272868             2.739445
 MD| Energy drift per atom [K]           0.286569582993E+00   0.143491040209E+00
 MD| Potential energy [hartree]         -0.149525714236E+02  -0.149528708727E+02
 MD| Kinetic energy [hartree]            0.100551452475E-02   0.130952432636E-02
 MD| Temperature [K]                              30.239619            39.382341
 MD| ***************************************************************************

 Number of electrons:                                                         14
 Number of occupied orbitals:                                                  7
 Number of molecular orbitals:                                                 7

 Number of orbital functions:                                                 56
 Number of independent orbital functions:                                     56

 Extrapolation method: ASPC


 SCF WAVEFUNCTION OPTIMIZATION

  ----------------------------------- OT ---------------------------------------
  Minimizer      : CG                  : conjugate gradient
  Preconditioner : FULL_ALL            : diagonalization, state selective
  Precond_solver : DEFAULT
  Line search    : 2PNT                : 2 energies, one gradient
  stepsize       :    0.15000000                  energy_gap     :    0.08000000
  eps_taylor     :   0.10000E-15                  max_taylor     :             4
  ----------------------------------- OT ---------------------------------------

  Step     Update method      Time    Convergence         Total energy    Change
  ------------------------------------------------------------------------------
     1 OT CG       0.15E+00    0.2     0.00004290       -14.9523836401 -1.50E+01
     2 OT LS       0.20E+00    0.1                      -14.9523837070
     3 OT CG       0.20E+00    0.2     0.00001753       -14.9523837110 -7.10E-08
     4 OT LS       0.13E+00    0.1                      -14.9523837167
     5 OT CG       0.13E+00    0.2     0.00000198       -14.9523837188 -7.77E-09
     6 OT LS       0.19E+00    0.1                      -14.9523837189
     7 OT CG       0.19E+00    0.2     0.00000038       -14.9523837189 -1.46E-10

  *** SCF run converged in     7 steps ***


  Electronic density on regular grids:        -14.0000000000        0.0000000000
  Core density on regular grids:               13.9999999989       -0.0000000011
  Total charge density on r-space grids:       -0.0000000010
  Total charge density g-space grids:          -0.0000000010

  Overlap energy of the core charge distribution:               0.00000165538933
  Self energy of the core charge distribution:                -35.13285960674677
  Core Hamiltonian energy:                                     11.42133281476702
  Hartree energy:                                              14.42218496630029
  Exchange-correlation energy:                                 -5.66304354864145

  Total energy:                                               -14.95238371893157

  outer SCF iter =    1 RMS gradient =   0.38E-06 energy =        -14.9523837189
  outer SCF loop converged in   1 iterations or    7 steps


 ENERGY| Total FORCE_EVAL ( QS ) energy [a.u.]:              -14.952383718936304

 MD| ***************************************************************************
 MD| Step number                                                               5
 MD| Time [fs]                                                          2.500000
 MD| Conserved quantity [hartree]                            -0.149514610927E+02
 MD| ---------------------------------------------------------------------------
 MD|                                          Instantaneous             Averages
 MD| CPU time per MD step [s]                      1.286306             2.448817
 MD| Energy drift per atom [K]           0.352830874448E+00   0.185359007057E+00
 MD| Potential energy [hartree]         -0.149523837189E+02  -0.149527734419E+02
 MD| Kinetic energy [hartree]            0.815681502872E-03   0.121075576166E-02
 MD| Temperature [K]                              24.530623            36.411998
 MD| ***************************************************************************

 Number of electrons:                                                         14
 Number of occupied orbitals:                                                  7
 Number of molecular orbitals:                                                 7

 Number of orbital functions:                                                 56
 Number of independent orbital functions:                                     56

 Extrapolation method: ASPC


 SCF WAVEFUNCTION OPTIMIZATION

  ----------------------------------- OT ---------------------------------------
  Minimizer      : CG                  : conjugate gradient
  Preconditioner : FULL_ALL            : diagonalization, state selective
  Precond_solver : DEFAULT
  Line search    : 2PNT                : 2 energies, one gradient
  stepsize       :    0.15000000                  energy_gap     :    0.08000000
  eps_taylor     :   0.10000E-15                  max_taylor     :             4
  ----------------------------------- OT ---------------------------------------

  Step     Update method      Time    Convergence         Total energy    Change
  ------------------------------------------------------------------------------
     1 OT CG       0.15E+00    0.2     0.00004330       -14.9522485640 -1.50E+01
     2 OT LS       0.20E+00    0.1                      -14.9522486320
     3 OT CG       0.20E+00    0.2     0.00001783       -14.9522486359 -7.18E-08
     4 OT LS       0.13E+00    0.1                      -14.9522486419
     5 OT CG       0.13E+00    0.2     0.00000198       -14.9522486439 -8.08E-09
     6 OT LS       0.19E+00    0.1                      -14.9522486441
     7 OT CG       0.19E+00    0.2     0.00000039       -14.9522486441 -1.47E-10

  *** SCF run converged in     7 steps ***


  Electronic density on regular grids:        -14.0000000000        0.0000000000
  Core density on regular grids:               13.9999999989       -0.0000000011
  Total charge density on r-space grids:       -0.0000000010
  Total charge density g-space grids:          -0.0000000010

  Overlap energy of the core charge distribution:               0.00000167320580
  Self energy of the core charge distribution:                -35.13285960674677
  Core Hamiltonian energy:                                     11.42522878075087
  Hartree energy:                                              14.41960883951872
  Exchange-correlation energy:                                 -5.66422833081980

  Total energy:                                               -14.95224864409120

  outer SCF iter =    1 RMS gradient =   0.39E-06 energy =        -14.9522486441
  outer SCF loop converged in   1 iterations or    7 steps


 ENERGY| Total FORCE_EVAL ( QS ) energy [a.u.]:              -14.952248644095905

 MD| ***************************************************************************
 MD| Step number                                                               6
 MD| Time [fs]                                                          3.000000
 MD| Conserved quantity [hartree]                            -0.149514605719E+02
 MD| ---------------------------------------------------------------------------
 MD|                                          Instantaneous             Averages
 MD| CPU time per MD step [s]                      1.255452             2.249923
 MD| Energy drift per atom [K]           0.373389818970E+00   0.216697475709E+00
 MD| Potential energy [hartree]         -0.149522486441E+02  -0.149526859756E+02
 MD| Kinetic energy [hartree]            0.678076326785E-03   0.112197585585E-02
 MD| Temperature [K]                              20.392316            33.742051
 MD| ***************************************************************************

 Number of electrons:                                                         14
 Number of occupied orbitals:                                                  7
 Number of molecular orbitals:                                                 7

 Number of orbital functions:                                                 56
 Number of independent orbital functions:                                     56

 Extrapolation method: ASPC


 SCF WAVEFUNCTION OPTIMIZATION

  ----------------------------------- OT ---------------------------------------
  Minimizer      : CG                  : conjugate gradient
  Preconditioner : FULL_ALL            : diagonalization, state selective
  Precond_solver : DEFAULT
  Line search    : 2PNT                : 2 energies, one gradient
  stepsize       :    0.15000000                  energy_gap     :    0.08000000
  eps_taylor     :   0.10000E-15                  max_taylor     :             4
  ----------------------------------- OT ---------------------------------------

  Step     Update method      Time    Convergence         Total energy    Change
  ------------------------------------------------------------------------------
     1 OT CG       0.15E+00    0.2     0.00004023       -14.9521743620 -1.50E+01
     2 OT LS       0.19E+00    0.1                      -14.9521744206
     3 OT CG       0.19E+00    0.2     0.00001668       -14.9521744238 -6.18E-08
     4 OT LS       0.13E+00    0.1                      -14.9521744292
     5 OT CG       0.13E+00    0.2     0.00000181       -14.9521744309 -7.09E-09
     6 OT LS       0.19E+00    0.1                      -14.9521744310
     7 OT CG       0.19E+00    0.2     0.00000036       -14.9521744310 -1.23E-10

  *** SCF run converged in     7 steps ***


  Electronic density on regular grids:        -14.0000000000        0.0000000000
  Core density on regular grids:               13.9999999990       -0.0000000010
  Total charge density on r-space grids:       -0.0000000010
  Total charge density g-space grids:          -0.0000000010

  Overlap energy of the core charge distribution:               0.00000167490570
  Self energy of the core charge distribution:                -35.13285960674677
  Core Hamiltonian energy:                                     11.42778056002246
  Hartree energy:                                              14.41790265620993
  Exchange-correlation energy:                                 -5.66499971543021

  Total energy:                                               -14.95217443103889

  outer SCF iter =    1 RMS gradient =   0.36E-06 energy =        -14.9521744310
  outer SCF loop converged in   1 iterations or    7 steps


 ENERGY| Total FORCE_EVAL ( QS ) energy [a.u.]:              -14.952174431042872

 MD| ***************************************************************************
 MD| Step number                                                               7
 MD| Time [fs]                                                          3.500000
 MD| Conserved quantity [hartree]                            -0.149514612548E+02
 MD| ---------------------------------------------------------------------------
 MD|                                          Instantaneous             Averages
 MD| CPU time per MD step [s]                      1.313693             2.116176
 MD| Energy drift per atom [K]           0.346433134762E+00   0.235231141288E+00
 MD| Potential energy [hartree]         -0.149521744310E+02  -0.149526128978E+02
 MD| Kinetic energy [hartree]            0.600640512158E-03   0.104749937818E-02
 MD| Temperature [K]                              18.063528            31.502262
 MD| ***************************************************************************

 Number of electrons:                                                         14
 Number of occupied orbitals:                                                  7
 Number of molecular orbitals:                                                 7

 Number of orbital functions:                                                 56
 Number of independent orbital functions:                                     56

 Extrapolation method: ASPC


 SCF WAVEFUNCTION OPTIMIZATION

  ----------------------------------- OT ---------------------------------------
  Minimizer      : CG                  : conjugate gradient
  Preconditioner : FULL_ALL            : diagonalization, state selective
  Precond_solver : DEFAULT
  Line search    : 2PNT                : 2 energies, one gradient
  stepsize       :    0.15000000                  energy_gap     :    0.08000000
  eps_taylor     :   0.10000E-15                  max_taylor     :             4
  ----------------------------------- OT ---------------------------------------

  Step     Update method      Time    Convergence         Total energy    Change
  ------------------------------------------------------------------------------
     1 OT CG       0.15E+00    0.2     0.00003418       -14.9521504313 -1.50E+01
     2 OT LS       0.19E+00    0.1                      -14.9521504734
     3 OT CG       0.19E+00    0.2     0.00001432       -14.9521504757 -4.44E-08
     4 OT LS       0.13E+00    0.1                      -14.9521504797
     5 OT CG       0.13E+00    0.2     0.00000149       -14.9521504809 -5.25E-09
     6 OT LS       0.19E+00    0.1                      -14.9521504810
     7 OT CG       0.19E+00    0.2     0.00000030       -14.9521504810 -8.35E-11

  *** SCF run converged in     7 steps ***


  Electronic density on regular grids:        -14.0000000000        0.0000000000
  Core density on regular grids:               13.9999999989       -0.0000000011
  Total charge density on r-space grids:       -0.0000000010
  Total charge density g-space grids:          -0.0000000010

  Overlap energy of the core charge distribution:               0.00000166277414
  Self energy of the core charge distribution:                -35.13285960674677
  Core Hamiltonian energy:                                     11.42895964599870
  Hartree energy:                                              14.41709358088901
  Exchange-correlation energy:                                 -5.66534576391666

  Total energy:                                               -14.95215048100159

  outer SCF iter =    1 RMS gradient =   0.30E-06 energy =        -14.9521504810
  outer SCF loop converged in   1 iterations or    7 steps


 ENERGY| Total FORCE_EVAL ( QS ) energy [a.u.]:              -14.952150481004281

 MD| ***************************************************************************
 MD| Step number                                                               8
 MD| Time [fs]                                                          4.000000
 MD| Conserved quantity [hartree]                            -0.149514627817E+02
 MD| ---------------------------------------------------------------------------
 MD|                                          Instantaneous             Averages
 MD| CPU time per MD step [s]                      1.273704             2.010867
 MD| Energy drift per atom [K]           0.286163726224E+00   0.241597714405E+00
 MD| Potential energy [hartree]         -0.149521504810E+02  -0.149525550957E+02
 MD| Kinetic energy [hartree]            0.572904670939E-03   0.988175039776E-03
 MD| Temperature [K]                              17.229407            29.718155
 MD| ***************************************************************************

 Number of electrons:                                                         14
 Number of occupied orbitals:                                                  7
 Number of molecular orbitals:                                                 7

 Number of orbital functions:                                                 56
 Number of independent orbital functions:                                     56

 Extrapolation method: ASPC


 SCF WAVEFUNCTION OPTIMIZATION

  ----------------------------------- OT ---------------------------------------
  Minimizer      : CG                  : conjugate gradient
  Preconditioner : FULL_ALL            : diagonalization, state selective
  Precond_solver : DEFAULT
  Line search    : 2PNT                : 2 energies, one gradient
  stepsize       :    0.15000000                  energy_gap     :    0.08000000
  eps_taylor     :   0.10000E-15                  max_taylor     :             4
  ----------------------------------- OT ---------------------------------------

  Step     Update method      Time    Convergence         Total energy    Change
  ------------------------------------------------------------------------------
     1 OT CG       0.15E+00    0.2     0.00002609       -14.9521530403 -1.50E+01
     2 OT LS       0.19E+00    0.1                      -14.9521530648
     3 OT CG       0.19E+00    0.2     0.00001108       -14.9521530661 -2.58E-08
     4 OT LS       0.13E+00    0.1                      -14.9521530685
     5 OT CG       0.13E+00    0.2     0.00000108       -14.9521530692 -3.15E-09
     6 OT LS       0.19E+00    0.1                      -14.9521530693
     7 OT CG       0.19E+00    0.2     0.00000022       -14.9521530693 -4.31E-11

  *** SCF run converged in     7 steps ***


  Electronic density on regular grids:        -14.0000000000        0.0000000000
  Core density on regular grids:               13.9999999989       -0.0000000011
  Total charge density on r-space grids:       -0.0000000010
  Total charge density g-space grids:          -0.0000000010

  Overlap energy of the core charge distribution:               0.00000164176714
  Self energy of the core charge distribution:                -35.13285960674677
  Core Hamiltonian energy:                                     11.42886137742374
  Hartree energy:                                              14.41713441631998
  Exchange-correlation energy:                                 -5.66529089803531

  Total energy:                                               -14.95215306927122

  outer SCF iter =    1 RMS gradient =   0.22E-06 energy =        -14.9521530693
  outer SCF loop converged in   1 iterations or    7 steps


 ENERGY| Total FORCE_EVAL ( QS ) energy [a.u.]:              -14.952153069272672

 MD| ***************************************************************************
 MD| Step number                                                               9
 MD| Time [fs]                                                          4.500000
 MD| Conserved quantity [hartree]                            -0.149514645136E+02
 MD| ---------------------------------------------------------------------------
 MD|                                          Instantaneous             Averages
 MD| CPU time per MD step [s]                      1.338228             1.936129
 MD| Energy drift per atom [K]           0.217801779369E+00   0.238953721623E+00
 MD| Potential energy [hartree]         -0.149521530693E+02  -0.149525104261E+02
 MD| Kinetic energy [hartree]            0.571630189348E-03   0.941892278617E-03
 MD| Temperature [K]                              17.191078            28.326257
 MD| ***************************************************************************

 Number of electrons:                                                         14
 Number of occupied orbitals:                                                  7
 Number of molecular orbitals:                                                 7

 Number of orbital functions:                                                 56
 Number of independent orbital functions:                                     56

 Extrapolation method: ASPC


 SCF WAVEFUNCTION OPTIMIZATION

  ----------------------------------- OT ---------------------------------------
  Minimizer      : CG                  : conjugate gradient
  Preconditioner : FULL_ALL            : diagonalization, state selective
  Precond_solver : DEFAULT
  Line search    : 2PNT                : 2 energies, one gradient
  stepsize       :    0.15000000                  energy_gap     :    0.08000000
  eps_taylor     :   0.10000E-15                  max_taylor     :             4
  ----------------------------------- OT ---------------------------------------

  Step     Update method      Time    Convergence         Total energy    Change
  ------------------------------------------------------------------------------
     1 OT CG       0.15E+00    0.2     0.00001809       -14.9521553371 -1.50E+01
     2 OT LS       0.20E+00    0.1                      -14.9521553491
     3 OT CG       0.20E+00    0.2     0.00000770       -14.9521553498 -1.26E-08
     4 OT LS       0.13E+00    0.1                      -14.9521553508
     5 OT CG       0.13E+00    0.2     0.00000073       -14.9521553513 -1.50E-09

  *** SCF run converged in     5 steps ***


  Electronic density on regular grids:        -14.0000000000        0.0000000000
  Core density on regular grids:               13.9999999989       -0.0000000011
  Total charge density on r-space grids:       -0.0000000010
  Total charge density g-space grids:          -0.0000000010

  Overlap energy of the core charge distribution:               0.00000161776440
  Self energy of the core charge distribution:                -35.13285960674677
  Core Hamiltonian energy:                                     11.42766966619808
  Hartree energy:                                              14.41791952121123
  Exchange-correlation energy:                                 -5.66488654968327

  Total energy:                                               -14.95215535125633

  outer SCF iter =    1 RMS gradient =   0.73E-06 energy =        -14.9521553513
  outer SCF loop converged in   1 iterations or    5 steps


 ENERGY| Total FORCE_EVAL ( QS ) energy [a.u.]:              -14.952155351273332

 MD| ***************************************************************************
 MD| Step number                                                              10
 MD| Time [fs]                                                          5.000000
 MD| Conserved quantity [hartree]                            -0.149514657617E+02
 MD| ---------------------------------------------------------------------------
 MD|                                          Instantaneous             Averages
 MD| CPU time per MD step [s]                      1.007373             1.843254
 MD| Energy drift per atom [K]           0.168537633363E+00   0.231912112797E+00
 MD| Potential energy [hartree]         -0.149521553513E+02  -0.149524749186E+02
 MD| Kinetic energy [hartree]            0.570609634349E-03   0.904764014190E-03
 MD| Temperature [K]                              17.160386            27.209670
 MD| ***************************************************************************

 Number of electrons:                                                         14
 Number of occupied orbitals:                                                  7
 Number of molecular orbitals:                                                 7

 Number of orbital functions:                                                 56
 Number of independent orbital functions:                                     56

 Extrapolation method: ASPC


 SCF WAVEFUNCTION OPTIMIZATION

  ----------------------------------- OT ---------------------------------------
  Minimizer      : CG                  : conjugate gradient
  Preconditioner : FULL_ALL            : diagonalization, state selective
  Precond_solver : DEFAULT
  Line search    : 2PNT                : 2 energies, one gradient
  stepsize       :    0.15000000                  energy_gap     :    0.08000000
  eps_taylor     :   0.10000E-15                  max_taylor     :             4
  ----------------------------------- OT ---------------------------------------

  Step     Update method      Time    Convergence         Total energy    Change
  ------------------------------------------------------------------------------
     1 OT CG       0.15E+00    0.2     0.00001521       -14.9521380737 -1.50E+01
     2 OT LS       0.21E+00    0.1                      -14.9521380825
     3 OT CG       0.21E+00    0.2     0.00000579       -14.9521380833 -9.54E-09
     4 OT LS       0.12E+00    0.1                      -14.9521380837
     5 OT CG       0.12E+00    0.2     0.00000077       -14.9521380841 -8.05E-10

  *** SCF run converged in     5 steps ***


  Electronic density on regular grids:        -14.0000000000        0.0000000000
  Core density on regular grids:               13.9999999989       -0.0000000011
  Total charge density on r-space grids:       -0.0000000010
  Total charge density g-space grids:          -0.0000000010

  Overlap energy of the core charge distribution:               0.00000159569075
  Self energy of the core charge distribution:                -35.13285960674677
  Core Hamiltonian energy:                                     11.42560569928949
  Hartree energy:                                              14.41931444410345
  Exchange-correlation energy:                                 -5.66420021641034

  Total energy:                                               -14.95213808407341

  outer SCF iter =    1 RMS gradient =   0.77E-06 energy =        -14.9521380841
  outer SCF loop converged in   1 iterations or    5 steps


 ENERGY| Total FORCE_EVAL ( QS ) energy [a.u.]:              -14.952138084090873

 MD| ***************************************************************************
 MD| Step number                                                              11
 MD| Time [fs]                                                          5.500000
 MD| Conserved quantity [hartree]                            -0.149514660374E+02
 MD| ---------------------------------------------------------------------------
 MD|                                          Instantaneous             Averages
 MD| CPU time per MD step [s]                      1.051990             1.771321
 MD| Energy drift per atom [K]           0.157657378014E+00   0.225161682363E+00
 MD| Potential energy [hartree]         -0.149521380841E+02  -0.149524442973E+02
 MD| Kinetic energy [hartree]            0.551120004355E-03   0.872614558751E-03
 MD| Temperature [K]                              16.574260            26.242815
 MD| ***************************************************************************

 Number of electrons:                                                         14
 Number of occupied orbitals:                                                  7
 Number of molecular orbitals:                                                 7

 Number of orbital functions:                                                 56
 Number of independent orbital functions:                                     56

 Extrapolation method: ASPC


 SCF WAVEFUNCTION OPTIMIZATION

  ----------------------------------- OT ---------------------------------------
  Minimizer      : CG                  : conjugate gradient
  Preconditioner : FULL_ALL            : diagonalization, state selective
  Precond_solver : DEFAULT
  Line search    : 2PNT                : 2 energies, one gradient
  stepsize       :    0.15000000                  energy_gap     :    0.08000000
  eps_taylor     :   0.10000E-15                  max_taylor     :             4
  ----------------------------------- OT ---------------------------------------

  Step     Update method      Time    Convergence         Total energy    Change
  ------------------------------------------------------------------------------
     1 OT CG       0.15E+00    0.2     0.00002053       -14.9520972281 -1.50E+01
     2 OT LS       0.21E+00    0.1                      -14.9520972439
     3 OT CG       0.21E+00    0.2     0.00000764       -14.9520972452 -1.71E-08
     4 OT LS       0.13E+00    0.1                      -14.9520972460
     5 OT CG       0.13E+00    0.2     0.00000116       -14.9520972466 -1.44E-09
     6 OT LS       0.16E+00    0.1                      -14.9520972467
     7 OT CG       0.16E+00    0.2     0.00000020       -14.9520972467 -4.34E-11

  *** SCF run converged in     7 steps ***


  Electronic density on regular grids:        -14.0000000000        0.0000000000
  Core density on regular grids:               13.9999999989       -0.0000000011
  Total charge density on r-space grids:       -0.0000000010
  Total charge density g-space grids:          -0.0000000010

  Overlap energy of the core charge distribution:               0.00000157813654
  Self energy of the core charge distribution:                -35.13285960674677
  Core Hamiltonian energy:                                     11.42288558453439
  Hartree energy:                                              14.42117626001317
  Exchange-correlation energy:                                 -5.66330106262512

  Total energy:                                               -14.95209724668779

  outer SCF iter =    1 RMS gradient =   0.20E-06 energy =        -14.9520972467
  outer SCF loop converged in   1 iterations or    7 steps


 ENERGY| Total FORCE_EVAL ( QS ) energy [a.u.]:              -14.952097246689128

 MD| ***************************************************************************
 MD| Step number                                                              12
 MD| Time [fs]                                                          6.000000
 MD| Conserved quantity [hartree]                            -0.149514652203E+02
 MD| ---------------------------------------------------------------------------
 MD|                                          Instantaneous             Averages
 MD| CPU time per MD step [s]                      1.301269             1.732150
 MD| Energy drift per atom [K]           0.189908796259E+00   0.222223941854E+00
 MD| Potential energy [hartree]         -0.149520972467E+02  -0.149524153764E+02
 MD| Kinetic energy [hartree]            0.509327337332E-03   0.842340623633E-03
 MD| Temperature [K]                              15.317396            25.332363
 MD| ***************************************************************************

 Number of electrons:                                                         14
 Number of occupied orbitals:                                                  7
 Number of molecular orbitals:                                                 7

 Number of orbital functions:                                                 56
 Number of independent orbital functions:                                     56

 Extrapolation method: ASPC


 SCF WAVEFUNCTION OPTIMIZATION

  ----------------------------------- OT ---------------------------------------
  Minimizer      : CG                  : conjugate gradient
  Preconditioner : FULL_ALL            : diagonalization, state selective
  Precond_solver : DEFAULT
  Line search    : 2PNT                : 2 energies, one gradient
  stepsize       :    0.15000000                  energy_gap     :    0.08000000
  eps_taylor     :   0.10000E-15                  max_taylor     :             4
  ----------------------------------- OT ---------------------------------------

  Step     Update method      Time    Convergence         Total energy    Change
  ------------------------------------------------------------------------------
     1 OT CG       0.15E+00    0.2     0.00002912       -14.9520458134 -1.50E+01
     2 OT LS       0.20E+00    0.1                      -14.9520458449
     3 OT CG       0.20E+00    0.2     0.00001079       -14.9520458473 -3.39E-08
     4 OT LS       0.13E+00    0.1                      -14.9520458491
     5 OT CG       0.13E+00    0.2     0.00000170       -14.9520458502 -2.90E-09
     6 OT LS       0.17E+00    0.1                      -14.9520458503
     7 OT CG       0.17E+00    0.2     0.00000031       -14.9520458503 -9.66E-11

  *** SCF run converged in     7 steps ***


  Electronic density on regular grids:        -14.0000000000        0.0000000000
  Core density on regular grids:               13.9999999989       -0.0000000011
  Total charge density on r-space grids:       -0.0000000010
  Total charge density g-space grids:          -0.0000000010

  Overlap energy of the core charge distribution:               0.00000156487906
  Self energy of the core charge distribution:                -35.13285960674677
  Core Hamiltonian energy:                                     11.41972495236462
  Hartree energy:                                              14.42334743931779
  Exchange-correlation energy:                                 -5.66226020008842

  Total energy:                                               -14.95204585027371

  outer SCF iter =    1 RMS gradient =   0.31E-06 energy =        -14.9520458503
  outer SCF loop converged in   1 iterations or    7 steps


 ENERGY| Total FORCE_EVAL ( QS ) energy [a.u.]:              -14.952045850276997

 MD| ***************************************************************************
 MD| Step number                                                              13
 MD| Time [fs]                                                          6.500000
 MD| Conserved quantity [hartree]                            -0.149514636033E+02
 MD| ---------------------------------------------------------------------------
 MD|                                          Instantaneous             Averages
 MD| CPU time per MD step [s]                      1.188845             1.690357
 MD| Energy drift per atom [K]           0.253734881822E+00   0.224647860313E+00
 MD| Potential energy [hartree]         -0.149520458503E+02  -0.149523869513E+02
 MD| Kinetic energy [hartree]            0.457995804113E-03   0.812775637516E-03
 MD| Temperature [K]                              13.773663            24.443232
 MD| ***************************************************************************

 Number of electrons:                                                         14
 Number of occupied orbitals:                                                  7
 Number of molecular orbitals:                                                 7

 Number of orbital functions:                                                 56
 Number of independent orbital functions:                                     56

 Extrapolation method: ASPC


 SCF WAVEFUNCTION OPTIMIZATION

  ----------------------------------- OT ---------------------------------------
  Minimizer      : CG                  : conjugate gradient
  Preconditioner : FULL_ALL            : diagonalization, state selective
  Precond_solver : DEFAULT
  Line search    : 2PNT                : 2 energies, one gradient
  stepsize       :    0.15000000                  energy_gap     :    0.08000000
  eps_taylor     :   0.10000E-15                  max_taylor     :             4
  ----------------------------------- OT ---------------------------------------

  Step     Update method      Time    Convergence         Total energy    Change
  ------------------------------------------------------------------------------
     1 OT CG       0.15E+00    0.2     0.00003645       -14.9520092095 -1.50E+01
     2 OT LS       0.20E+00    0.1                      -14.9520092585
     3 OT CG       0.20E+00    0.2     0.00001417       -14.9520092618 -5.23E-08
     4 OT LS       0.13E+00    0.1                      -14.9520092652
     5 OT CG       0.13E+00    0.2     0.00000200       -14.9520092669 -5.05E-09
     6 OT LS       0.17E+00    0.1                      -14.9520092670
     7 OT CG       0.17E+00    0.2     0.00000039       -14.9520092670 -1.35E-10

  *** SCF run converged in     7 steps ***


  Electronic density on regular grids:        -14.0000000000        0.0000000000
  Core density on regular grids:               13.9999999989       -0.0000000011
  Total charge density on r-space grids:       -0.0000000010
  Total charge density g-space grids:          -0.0000000010

  Overlap energy of the core charge distribution:               0.00000155343772
  Self energy of the core charge distribution:                -35.13285960674677
  Core Hamiltonian energy:                                     11.41629521529607
  Hartree energy:                                              14.42569415192546
  Exchange-correlation energy:                                 -5.66114058089981

  Total energy:                                               -14.95200926698732

  outer SCF iter =    1 RMS gradient =   0.39E-06 energy =        -14.9520092670
  outer SCF loop converged in   1 iterations or    7 steps


 ENERGY| Total FORCE_EVAL ( QS ) energy [a.u.]:              -14.952009266992480

 MD| ***************************************************************************
 MD| Step number                                                              14
 MD| Time [fs]                                                          7.000000
 MD| Conserved quantity [hartree]                            -0.149514617985E+02
 MD| ---------------------------------------------------------------------------
 MD|                                          Instantaneous             Averages
 MD| CPU time per MD step [s]                      1.257228             1.659419
 MD| Energy drift per atom [K]           0.324974016392E+00   0.231814014319E+00
 MD| Potential energy [hartree]         -0.149520092670E+02  -0.149523599739E+02
 MD| Kinetic energy [hartree]            0.421867209487E-03   0.784853606942E-03
 MD| Temperature [K]                              12.687140            23.603512
 MD| ***************************************************************************

 Number of electrons:                                                         14
 Number of occupied orbitals:                                                  7
 Number of molecular orbitals:                                                 7

 Number of orbital functions:                                                 56
 Number of independent orbital functions:                                     56

 Extrapolation method: ASPC


 SCF WAVEFUNCTION OPTIMIZATION

  ----------------------------------- OT ---------------------------------------
  Minimizer      : CG                  : conjugate gradient
  Preconditioner : FULL_ALL            : diagonalization, state selective
  Precond_solver : DEFAULT
  Line search    : 2PNT                : 2 energies, one gradient
  stepsize       :    0.15000000                  energy_gap     :    0.08000000
  eps_taylor     :   0.10000E-15                  max_taylor     :             4
  ----------------------------------- OT ---------------------------------------

  Step     Update method      Time    Convergence         Total energy    Change
  ------------------------------------------------------------------------------
     1 OT CG       0.15E+00    0.2     0.00004149       -14.9520156129 -1.50E+01
     2 OT LS       0.20E+00    0.1                      -14.9520156759
     3 OT CG       0.20E+00    0.2     0.00001630       -14.9520156799 -6.70E-08
     4 OT LS       0.13E+00    0.1                      -14.9520156847
     5 OT CG       0.13E+00    0.2     0.00000228       -14.9520156866 -6.73E-09
     6 OT LS       0.17E+00    0.1                      -14.9520156868
     7 OT CG       0.17E+00    0.2     0.00000045       -14.9520156868 -1.78E-10

  *** SCF run converged in     7 steps ***


  Electronic density on regular grids:        -14.0000000000        0.0000000000
  Core density on regular grids:               13.9999999989       -0.0000000011
  Total charge density on r-space grids:       -0.0000000010
  Total charge density g-space grids:          -0.0000000010

  Overlap energy of the core charge distribution:               0.00000154049041
  Self energy of the core charge distribution:                -35.13285960674677
  Core Hamiltonian energy:                                     11.41275827528907
  Hartree energy:                                              14.42808613521687
  Exchange-correlation energy:                                 -5.66000203106382

  Total energy:                                               -14.95201568681425

  outer SCF iter =    1 RMS gradient =   0.45E-06 energy =        -14.9520156868
  outer SCF loop converged in   1 iterations or    7 steps


 ENERGY| Total FORCE_EVAL ( QS ) energy [a.u.]:              -14.952015686821058

 MD| ***************************************************************************
 MD| Step number                                                              15
 MD| Time [fs]                                                          7.500000
 MD| Conserved quantity [hartree]                            -0.149514605121E+02
 MD| ---------------------------------------------------------------------------
 MD|                                          Instantaneous             Averages
 MD| CPU time per MD step [s]                      1.229696             1.630771
 MD| Energy drift per atom [K]           0.375750736128E+00   0.241409795773E+00
 MD| Potential energy [hartree]         -0.149520156868E+02  -0.149523370214E+02
 MD| Kinetic energy [hartree]            0.428330684862E-03   0.761085412137E-03
 MD| Temperature [K]                              12.881521            22.888712
 MD| ***************************************************************************

 Number of electrons:                                                         14
 Number of occupied orbitals:                                                  7
 Number of molecular orbitals:                                                 7

 Number of orbital functions:                                                 56
 Number of independent orbital functions:                                     56

 Extrapolation method: ASPC


 SCF WAVEFUNCTION OPTIMIZATION

  ----------------------------------- OT ---------------------------------------
  Minimizer      : CG                  : conjugate gradient
  Preconditioner : FULL_ALL            : diagonalization, state selective
  Precond_solver : DEFAULT
  Line search    : 2PNT                : 2 energies, one gradient
  stepsize       :    0.15000000                  energy_gap     :    0.08000000
  eps_taylor     :   0.10000E-15                  max_taylor     :             4
  ----------------------------------- OT ---------------------------------------

  Step     Update method      Time    Convergence         Total energy    Change
  ------------------------------------------------------------------------------
     1 OT CG       0.15E+00    0.2     0.00004317       -14.9520850319 -1.50E+01
     2 OT LS       0.20E+00    0.1                      -14.9520850998
     3 OT CG       0.20E+00    0.2     0.00001721       -14.9520851038 -7.19E-08
     4 OT LS       0.13E+00    0.1                      -14.9520851094
     5 OT CG       0.13E+00    0.2     0.00000234       -14.9520851114 -7.54E-09
     6 OT LS       0.17E+00    0.1                      -14.9520851116
     7 OT CG       0.17E+00    0.2     0.00000047       -14.9520851116 -1.88E-10

  *** SCF run converged in     7 steps ***


  Electronic density on regular grids:        -14.0000000000        0.0000000000
  Core density on regular grids:               13.9999999989       -0.0000000011
  Total charge density on r-space grids:       -0.0000000010
  Total charge density g-space grids:          -0.0000000010

  Overlap energy of the core charge distribution:               0.00000152365589
  Self energy of the core charge distribution:                -35.13285960674677
  Core Hamiltonian energy:                                     11.40927902351412
  Hartree energy:                                              14.43039704509943
  Exchange-correlation energy:                                 -5.65890309710070

  Total energy:                                               -14.95208511157803

  outer SCF iter =    1 RMS gradient =   0.47E-06 energy =        -14.9520851116
  outer SCF loop converged in   1 iterations or    7 steps


 ENERGY| Total FORCE_EVAL ( QS ) energy [a.u.]:              -14.952085111585376

 MD| ***************************************************************************
 MD| Step number                                                              16
 MD| Time [fs]                                                          8.000000
 MD| Conserved quantity [hartree]                            -0.149514602893E+02
 MD| ---------------------------------------------------------------------------
 MD|                                          Instantaneous             Averages
 MD| CPU time per MD step [s]                      1.261587             1.607697
 MD| Energy drift per atom [K]           0.384544566762E+00   0.250355718959E+00
 MD| Potential energy [hartree]         -0.149520851116E+02  -0.149523212771E+02
 MD| Kinetic energy [hartree]            0.496693181521E-03   0.744560897723E-03
 MD| Temperature [K]                              14.937439            22.391758
 MD| ***************************************************************************

 Number of electrons:                                                         14
 Number of occupied orbitals:                                                  7
 Number of molecular orbitals:                                                 7

 Number of orbital functions:                                                 56
 Number of independent orbital functions:                                     56

 Extrapolation method: ASPC


 SCF WAVEFUNCTION OPTIMIZATION

  ----------------------------------- OT ---------------------------------------
  Minimizer      : CG                  : conjugate gradient
  Preconditioner : FULL_ALL            : diagonalization, state selective
  Precond_solver : DEFAULT
  Line search    : 2PNT                : 2 energies, one gradient
  stepsize       :    0.15000000                  energy_gap     :    0.08000000
  eps_taylor     :   0.10000E-15                  max_taylor     :             4
  ----------------------------------- OT ---------------------------------------

  Step     Update method      Time    Convergence         Total energy    Change
  ------------------------------------------------------------------------------
     1 OT CG       0.15E+00    0.2     0.00004138       -14.9522208163 -1.50E+01
     2 OT LS       0.20E+00    0.1                      -14.9522208783
     3 OT CG       0.20E+00    0.2     0.00001669       -14.9522208818 -6.55E-08
     4 OT LS       0.13E+00    0.1                      -14.9522208872
     5 OT CG       0.13E+00    0.2     0.00000225       -14.9522208889 -7.13E-09
     6 OT LS       0.17E+00    0.1                      -14.9522208891
     7 OT CG       0.17E+00    0.2     0.00000045       -14.9522208891 -1.73E-10

  *** SCF run converged in     7 steps ***


  Electronic density on regular grids:        -14.0000000000        0.0000000000
  Core density on regular grids:               13.9999999989       -0.0000000011
  Total charge density on r-space grids:       -0.0000000010
[...]
     7 OT CG       0.17E+00    0.2     0.00000044       -14.9512129795 -1.60E-10

  *** SCF run converged in     7 steps ***


  Electronic density on regular grids:        -14.0000000000        0.0000000000
  Core density on regular grids:               13.9999999989       -0.0000000011
  Total charge density on r-space grids:       -0.0000000010
  Total charge density g-space grids:          -0.0000000010

  Overlap energy of the core charge distribution:               0.00000149611251
  Self energy of the core charge distribution:                -35.13285960674677
  Core Hamiltonian energy:                                     11.33499220047306
  Hartree energy:                                              14.48387011174755
  Exchange-correlation energy:                                 -5.63721718106855

  Total energy:                                               -14.95121297948220

  outer SCF iter =    1 RMS gradient =   0.44E-06 energy =        -14.9512129795
  outer SCF loop converged in   1 iterations or    7 steps


 ENERGY| Total FORCE_EVAL ( QS ) energy [a.u.]:              -14.951212979488943

 MD| ***************************************************************************
 MD| Step number                                                            1000
 MD| Time [fs]                                                        500.000000
 MD| Conserved quantity [hartree]                            -0.149514580514E+02
 MD| ---------------------------------------------------------------------------
 MD|                                          Instantaneous             Averages
 MD| CPU time per MD step [s]                      1.268271             1.245357
 MD| Energy drift per atom [K]           0.472879353812E+00   0.335485945720E+00
 MD| Potential energy [hartree]         -0.149512129795E+02  -0.149520468867E+02
 MD| Kinetic energy [hartree]            0.145880531264E-02   0.149862413189E-02
 MD| Temperature [K]                              43.871784            45.069286
 MD| ***************************************************************************

 -------------------------------------------------------------------------------
 -                                                                             -
 -                                DBCSR STATISTICS                             -
 -                                                                             -
 -------------------------------------------------------------------------------
 COUNTER                                    TOTAL       BLAS       SMM       ACC
 flops     7 x     7 x     7              2835238       0.0%    100.0%      0.0%
 flops     5 x    13 x     7             48381060       0.0%    100.0%      0.0%
 flops    13 x     5 x     7             48381060       0.0%    100.0%      0.0%
 flops     7 x     7 x    13             50068200       0.0%    100.0%      0.0%
 flops     7 x     7 x     5             57771000       0.0%    100.0%      0.0%
 flops    13 x    13 x     7             62895378       0.0%    100.0%      0.0%
 flops     5 x     5 x     7             65128350       0.0%    100.0%      0.0%
 flops    26 x     7 x     7             67544932       0.0%    100.0%      0.0%
 flops    10 x     7 x     7             77936460       0.0%    100.0%      0.0%
 flops    26 x     7 x    13             93333968       0.0%    100.0%      0.0%
 flops    26 x     7 x     5            107693040       0.0%    100.0%      0.0%
 flops    10 x     7 x    13            107693040       0.0%    100.0%      0.0%
 flops    10 x     7 x     5            124261200       0.0%    100.0%      0.0%
 flops    13 x     7 x    13            206201632       0.0%    100.0%      0.0%
 flops    13 x     7 x     5            237924960       0.0%    100.0%      0.0%
 flops     5 x     7 x    13            237924960       0.0%    100.0%      0.0%
 flops     5 x     7 x     5            274528800       0.0%    100.0%      0.0%
 flops inhomo. stacks                           0       0.0%      0.0%      0.0%
 flops total                         1.870503E+09       0.0%    100.0%      0.0%
 flops max/rank                    886.268348E+06       0.0%    100.0%      0.0%
 matmuls inhomo. stacks                         0       0.0%      0.0%      0.0%
 matmuls total                            2296381       0.0%    100.0%      0.0%
 number of processed stacks               1492833       0.0%    100.0%      0.0%
 average stack size                                     0.0       1.5       0.0
 marketing flops                     2.040795E+09
 -------------------------------------------------------------------------------
 # multiplications                          91804
 max memory usage/rank             179.339264E+06
 # max total images/rank                        3
 # max 3D layers                                1
 # MPI messages exchanged                41862624
 MPI messages size (bytes):
  total size                         5.441674E+09
  min size                           0.000000E+00
  max size                           2.704000E+03
  average size                     129.988831E+00
 MPI breakdown and total messages size (bytes):
             size <=      128            33801935                        0
       128 < size <=     8192             8060689               5443019960
      8192 < size <=    32768                   0                        0
     32768 < size <=   131072                   0                        0
    131072 < size <=  4194304                   0                        0
   4194304 < size <= 16777216                   0                        0
  16777216 < size                               0                        0
 -------------------------------------------------------------------------------

 *** WARNING in dbcsr_mm.F:294 :: Using a non-square number of MPI ranks ***
 *** might lead to poor performance. Used ranks: 24 Suggested: 25 49     ***

 -------------------------------------------------------------------------------
 -                                                                             -
 -                      DBCSR MESSAGE PASSING PERFORMANCE                      -
 -                                                                             -
 -------------------------------------------------------------------------------
 ROUTINE             CALLS      AVE VOLUME [Bytes]
 MP_Bcast               18                     12.
 MP_Allreduce       445937                      8.
 MP_Alltoall        560286                   1698.
 MP_ISend          3851764                    220.
 MP_IRecv          3851764                    144.
 -------------------------------------------------------------------------------

 -------------------------------------------------------------------------------
 -                                                                             -
 -                                GRID STATISTICS                              -
 -                                                                             -
 -------------------------------------------------------------------------------
 LP    KERNEL             BACKEND                              COUNT     PERCENT
 2     collocate ortho    REF                                5377932      35.45%
 3     collocate ortho    REF                                2985962      19.69%
 2     integrate ortho    REF                                2688966      17.73%
 3     integrate ortho    REF                                2177890      14.36%
 4     integrate ortho    REF                                 740753       4.88%
 4     collocate ortho    REF                                 720972       4.75%
 0     collocate general  REF                                 192192       1.27%
 1     integrate general  REF                                 192192       1.27%
 5     integrate ortho    REF                                  91816       0.61%
 -------------------------------------------------------------------------------

 MEMORY| Estimated peak process memory [MiB]                                 172

 -------------------------------------------------------------------------------
 -                                                                             -
 -                         MESSAGE PASSING PERFORMANCE                         -
 -                                                                             -
 -------------------------------------------------------------------------------

 ROUTINE             CALLS      AVE VOLUME [Bytes]
 MP_Group                4
 MP_Bcast            75386                   5795.
 MP_Allreduce       167205                     48.
 MP_Sync              6080
 MP_Alltoall        134064                2785749.
 MP_ISendRecv       882579                  53808.
 MP_Wait           1385541
 MP_comm_split        3038
 MP_ISend           443790                 171619.
 MP_IRecv           443790                 171448.
 MP_Recv              3006                    896.
 -------------------------------------------------------------------------------


 -------------------------------------------------------------------------------
 -                                                                             -
 -                           R E F E R E N C E S                               -
 -                                                                             -
 -------------------------------------------------------------------------------
 
 CP2K version 8.2, the CP2K developers group (2021).
 CP2K is freely available from https://www.cp2k.org/ .

 Kuehne,Thomas D.; Iannuzzi,Marcella; Del Ben,Mauro;
 Rybkin,Vladimir V.; Seewald,Patrick; Stein,Frederick; Laino,Teodoro;
 Khaliullin,Rustam Z.; Schuett,Ole; Schiffmann,Florian; Golze,Dorothea;
 Wilhelm,Jan; Chulkov,Sergey; Bani-Hashemian,Mohammad Hossein;
 Weber,Valery; Borstnik,Urban; Taillefumier,Mathieu;
 Jakobovits,Alice Shoshana; Lazzaro,Alfio; Pabst,Hans; Mueller,Tiziano;
 Schade,Robert; Guidon,Manuel; Andermatt,Samuel; Holmberg,Nico;
 Schenter,Gregory K.; Hehn,Anna; Bussy,Augustin; Belleflamme,Fabian;
 Tabacchi,Gloria; Gloess,Andreas; Lass,Michael; Bethune,Iain;
 Mundy,Christopher J.; Plessl,Christian; Watkins,Matt;
 VandeVondele,Joost; Krack,Matthias; Hutter,Juerg. 
 The Journal of Chemical Physics, 152 (19), (2020). 
 CP2K: An electronic structure and molecular dynamics software package -
 Quickstep: Efficient and accurate electronic structure calculations.
 https://doi.org/10.1063/5.0007045

 Schuett, Ole; Messmer, Peter; Hutter, Juerg; VandeVondele, Joost. 
 Electronic Structure Calculations on Graphics Processing Units, John
 Wiley & Sons, Ltd, 173-190 (2016). 
 GPU-Accelerated Sparse Matrix-Matrix Multiplication for
 Linear Scaling Density Functional Theory.
 https://doi.org/10.1002/9781118670712.ch8

 Heinecke, A; Henry, G; Hutchinson, M; Pabst, H. 
 Proceedings of Intl. Supercomputing Conference, 981-991 (2016). 
 LIBXSMM: Accelerating Small Matrix Multiplications
 by Runtime Code Generation.
 https://doi.org/10.1109/SC.2016.83

 Borstnik, U; VandeVondele, J; Weber, V; Hutter, J. 
 PARALLEL COMPUTING, 40 (5-6), 47-58 (2014). 
 Sparse matrix multiplication: The distributed block-compressed sparse
 row library.
 https://doi.org/10.1016/j.parco.2014.03.012

 Hutter, J; Iannuzzi, M; Schiffmann, F; VandeVondele, J. 
 WIREs Comput Mol Sci., 4 (1), 15-25 (2014). 
 CP2K: atomistic simulations of condensed matter systems.
 https://doi.org/10.1002/wcms.1159

 Marek, A; Blum, V; Johanni, R; Havu, V; Lang, B; Auckenthaler, T;
 Heinecke, A; Bungartz, H; Lederer, H. 
 Journal of Physics: Condensed Matter, 26 (21), (2014). 
 The ELPA library: scalable parallel eigenvalue solutions for
 electronic structure
 theory and computational science.
 https://doi.org/10.1088/0953-8984/26/21/213201

 VandeVondele, J; Hutter, J. 
 JOURNAL OF CHEMICAL PHYSICS, 127 (11), 114105 (2007). 
 Gaussian basis sets for accurate calculations on molecular systems in
 gas and condensed phases.
 https://doi.org/10.1063/1.2770708

 Kuhne, TD; Krack, M; Mohamed, FR; Parrinello, M. 
 PHYSICAL REVIEW LETTERS, 98 (6), 066401 (2007). 
 Efficient and accurate Car-Parrinello-like approach to
 Born-Oppenheimer molecular dynamics.
 https://doi.org/10.1103/PhysRevLett.98.066401

 Krack, M. 
 THEORETICAL CHEMISTRY ACCOUNTS, 114 (1-3), 145-152 (2005). 
 Pseudopotentials for H to Kr optimized for gradient-corrected
 exchange-correlation functionals.
 https://doi.org/10.1007/s00214-005-0655-y

 VandeVondele, J; Krack, M; Mohamed, F; Parrinello, M; Chassaing, T;
 Hutter, J. COMPUTER PHYSICS COMMUNICATIONS, 167 (2), 103-128 (2005). 
 QUICKSTEP: Fast and accurate density functional calculations using a
 mixed Gaussian and plane waves approach.
 https://doi.org/10.1016/j.cpc.2004.12.014

 Frigo, M; Johnson, SG. 
 PROCEEDINGS OF THE IEEE, 93 (2), 216-231 (2005). 
 The design and implementation of FFTW3.
 https://doi.org/10.1109/JPROC.2004.840301

 Kolafa, J. 
 JOURNAL OF COMPUTATIONAL CHEMISTRY, 25 (3), 335-342 (2004). 
 Time-reversible always stable predictor-corrector method for molecular dynamics of polarizable molecules.
 https://doi.org/10.1002/jcc.10385

 VandeVondele, J; Hutter, J. 
 JOURNAL OF CHEMICAL PHYSICS, 118 (10), 4365-4369 (2003). 
 An efficient orbital transformation method for electronic structure
 calculations.
 https://doi.org/10.1063/1.1543154

 Hartwigsen, C; Goedecker, S; Hutter, J. 
 PHYSICAL REVIEW B, 58 (7), 3641-3662 (1998). 
 Relativistic separable dual-space Gaussian pseudopotentials from H to Rn.
 https://doi.org/10.1103/PhysRevB.58.3641

 Lippert, G; Hutter, J; Parrinello, M. 
 MOLECULAR PHYSICS, 92 (3), 477-487 (1997). 
 A hybrid Gaussian and plane wave density functional scheme.
 https://doi.org/10.1080/002689797170220

 Perdew, JP; Burke, K; Ernzerhof, M. 
 PHYSICAL REVIEW LETTERS, 77 (18), 3865-3868 (1996). 
 Generalized gradient approximation made simple.
 https://doi.org/10.1103/PhysRevLett.77.3865

 Goedecker, S; Teter, M; Hutter, J. 
 PHYSICAL REVIEW B, 54 (3), 1703-1710 (1996). 
 Separable dual-space Gaussian pseudopotentials.
 https://doi.org/10.1103/PhysRevB.54.1703

 NOSE, S. JOURNAL OF CHEMICAL PHYSICS, 81 (1), 511-519 (1984). 
 A UNIFIED FORMULATION OF THE CONSTANT TEMPERATURE MOLECULAR-DYNAMICS
 METHODS.
 https://doi.org/10.1063/1.447334

 NOSE, S. MOLECULAR PHYSICS, 52 (2), 255-268 (1984). 
 A MOLECULAR-DYNAMICS METHOD FOR SIMULATIONS IN THE CANONICAL ENSEMBLE.
 https://doi.org/10.1080/00268978400101201


 -------------------------------------------------------------------------------
 -                                                                             -
 -                                T I M I N G                                  -
 -                                                                             -
 -------------------------------------------------------------------------------
 SUBROUTINE                       CALLS  ASD         SELF TIME        TOTAL TIME
                                MAXIMUM       AVERAGE  MAXIMUM  AVERAGE  MAXIMUM
 CP2K                                 1  1.0    0.005    0.009 1245.730 1245.738
 qs_mol_dyn_low                       1  2.0    0.023    0.028 1245.368 1245.376
 velocity_verlet                   1000  3.0    0.086    0.140 1237.488 1237.793
 qs_forces                         1001  4.0    0.052    0.061 1235.774 1235.781
 qs_energies                       1001  5.0    0.036    0.038 1091.647 1091.695
 scf_env_do_scf                    1001  6.0    0.029    0.130 1025.320 1025.328
 scf_env_do_scf_inner_loop         6859  7.0    0.112    0.531  873.148  873.596
 rebuild_ks_matrix                 7860  8.6    0.018    0.020  828.931  829.200
 qs_ks_build_kohn_sham_matrix      7860  9.6    0.685    0.736  828.912  829.181
 qs_ks_update_qs_env               7860  8.0    0.043    0.049  690.062  690.286
 pw_transfer                     123980 12.2    5.220    5.938  587.233  637.420
 fft_wrap_pw1pw2                 108260 13.3    0.773    0.868  578.734  629.013
 qs_vxc_create                     7860 10.6    0.081    0.088  625.677  626.617
 fft_wrap_pw1pw2_200              69887 14.4   31.538   34.172  553.601  604.228
 fft3d_ps                        108260 15.3  267.583  303.916  471.237  521.627
 xc_rho_set_and_dset_create        7860 12.6    2.703    2.930  398.472  464.335
 xc_vxc_pw_create                  4931 11.4    7.376    8.314  452.219  453.152
 qs_rho_update_rho                 7860  8.1    0.029    0.033  276.581  276.644
 calculate_rho_elec                7860  9.1    4.401    4.864  276.552  276.616
 xc_functional_eval                7860 13.6    0.048    0.068  191.298  256.104
 pbe_lda_eval                      7860 14.6  191.250  256.064  191.250  256.064
 density_rs2pw                     7860 10.1    0.257    0.269  230.046  241.151
 mp_alltoall_z22v                108260 17.3  164.302  219.183  164.302  219.183
 rs_pw_transfer                   53166 11.9    0.512    0.574  171.872  178.696
 xc_exc_calc                       2929 12.0    1.216    1.400  173.378  173.385
 yz_to_x                          52165 15.7   12.093   14.513  105.868  160.225
 init_scf_loop                     1001  7.0    0.017    0.018  151.085  151.089
 qs_ks_update_qs_env_forces        1001  5.0    0.003    0.004  139.289  139.342
 sum_up_and_integrate              4931 10.4    0.742    0.846  133.388  133.611
 integrate_v_rspace                4931 11.4    0.084    0.092  132.642  132.878
 potential_pw2rs                   4931 12.4    0.262    0.268  106.536  106.788
 x_to_yz                          56095 16.8   26.095   30.504   96.622  100.673
 rs_pw_transfer_RS2PW_200          8861 11.9   34.541   36.329   71.672   78.712
 dbcsr_multiply_generic           91804 12.3    2.215    2.579   73.702   75.445
 mp_sum_d                         99971 12.6   42.402   74.294   42.402   74.294
 qs_scf_new_mos                    6859  8.0    0.027    0.034   65.156   65.289
 qs_scf_loop_do_ot                 6859  9.0    0.028    0.032   65.129   65.260
 ot_scf_mini                       6859 10.0    0.076    0.083   59.276   59.383
 mp_waitany                      443790 13.6   47.517   57.010   47.517   57.010
 grid_collocate_task_list          7860 10.1   35.054   54.027   35.054   54.027
 rs_pw_transfer_PW2RS_200          5932 13.6   24.075   25.583   44.688   46.300
 init_scf_run                      1001  6.0    0.017    0.083   45.788   45.789
 scf_env_initial_rho_setup         1001  7.0    0.010    0.052   45.768   45.772
 wfi_extrapolate                   1001  8.0    0.044    0.047   45.402   45.411
 mp_waitall_1                   6082775 16.1   37.433   41.886   37.433   41.886
 pw_scatter_p                     56095 15.8   37.530   37.922   37.530   37.922
 pw_gather_p                      52165 14.7   35.839   36.574   35.839   36.574
 ot_mini                           6859 11.0    0.024    0.027   34.101   34.179
 multiply_cannon                  91804 13.3    4.440    4.944   29.137   31.347
 make_m2s                        183608 13.3    1.803    2.073   27.522   28.161
 mp_alltoall_d11v                190690 13.2   22.210   26.668   22.210   26.668
 qs_ot_get_derivative              3930 12.0    0.021    0.024   26.237   26.309
 -------------------------------------------------------------------------------

 The number of warnings for this run is : 2
 
 -------------------------------------------------------------------------------
  **** **** ******  **  PROGRAM ENDED AT                 2021-09-18 17:35:46.111
 ***** ** ***  *** **   PROGRAM RAN ON                                     node1
 **    ****   ******    PROGRAM RAN BY                                   lujunbo
 ***** **    ** ** **   PROGRAM PROCESS ID                                397366
  **** **  *******  **  PROGRAM STOPPED IN /home/lujunbo/WORK/deepmd/c2h6/cp2k_m
                                           d
