 DBCSR| CPU Multiplication driver                                           XSMM
 DBCSR| Multrec recursion limit                                              512
 DBCSR| Multiplication stack size                                           1000
 DBCSR| Maximum elements for images                                    UNLIMITED
 DBCSR| Multiplicative factor virtual images                                   1
 DBCSR| Use multiplication densification                                       T
 DBCSR| Multiplication size stacks                                             3
 DBCSR| Use memory pool for CPU allocation                                     F
 DBCSR| Number of 3D layers                                               SINGLE
 DBCSR| Use MPI memory allocation                                              F
 DBCSR| Use RMA algorithm                                                      F
 DBCSR| Use Communication thread                                               T
 DBCSR| Communication thread load                                             87
 DBCSR| MPI: My node id                                                        0
 DBCSR| MPI: Number of nodes                                                  24
 DBCSR| OMP: Current number of threads                                         1
 DBCSR| OMP: Max number of threads                                             1
 DBCSR| Split modifier for TAS multiplication algorithm                  1.0E+00


  **** **** ******  **  PROGRAM STARTED AT               2021-10-27 12:55:31.234
 ***** ** ***  *** **   PROGRAM STARTED ON                                node10
 **    ****   ******    PROGRAM STARTED BY                               lujunbo
 ***** **    ** ** **   PROGRAM PROCESS ID                                232472
  **** **  *******  **  PROGRAM STARTED IN /home/lujunbo/WORK/deepmd/c2h6/mtd/tr
                                           ain_4_sys/cp2k_md/sys_4/data/task_110
                                           6

 CP2K| version string:                                          CP2K version 8.2
 CP2K| source code revision number:                                  git:310b7ab
 CP2K| cp2kflags: omp libint fftw3 libxc elpa parallel mpi3 scalapack xsmm plume
 CP2K|            d2 spglib mkl libvori libbqb
 CP2K| is freely available from                            https://www.cp2k.org/
 CP2K| Program compiled at                          Tue Jun  1 15:18:23 CST 2021
 CP2K| Program compiled on                                                   mgr
 CP2K| Program compiled for                                                local
 CP2K| Data directory path                       /home/lujunbo/bin/cp2k-8.2/data
 CP2K| Input file name                                                 input.inp

 GLOBAL| Force Environment number                                              1
 GLOBAL| Basis set file name            /home/lujunbo/bin/cp2k-8.2/data/BASIS_MO
 GLOBAL| Potential file name            /home/lujunbo/bin/cp2k-8.2/data/POTENTIA
 GLOBAL| MM Potential file name                                     MM_POTENTIAL
 GLOBAL| Coordinate file name                                      __STD_INPUT__
 GLOBAL| Method name                                                        CP2K
 GLOBAL| Project name                                                       cp2k
 GLOBAL| Run type                                                   ENERGY_FORCE
 GLOBAL| FFT library                                                       FFTW3
 GLOBAL| Diagonalization library                                            ELPA
 GLOBAL| Minimum number of eigenvectors for ELPA usage                        16
 GLOBAL| Orthonormality check for eigenvectors                          DISABLED
 GLOBAL| Matrix multiplication library                                    SCALAP
 GLOBAL| All-to-all communication in single precision                          F
 GLOBAL| FFTs using library dependent lengths                                  F
 GLOBAL| Grid backend                                                       AUTO
 GLOBAL| Global print level                                                  LOW
 GLOBAL| MPI I/O enabled                                                       T
 GLOBAL| Total number of message passing processes                            24
 GLOBAL| Number of threads for this process                                    1
 GLOBAL| This output is from process                                           0
 GLOBAL| CPU model name             Intel(R) Xeon(R) Platinum 9242 CPU @ 2.30GHz
 GLOBAL| CPUID                                                              1003

 MEMORY| system memory details [Kb]
 MEMORY|                        rank 0           min           max       average
 MEMORY| MemTotal            394609400     394609400     394609400     394609400
 MEMORY| MemFree             296071516     296071516     296071516     296071516
 MEMORY| Buffers                178160        178160        178160        178160
 MEMORY| Cached               62489300      62489300      62489300      62489300
 MEMORY| Slab                  1277396       1277396       1277396       1277396
 MEMORY| SReclaimable           586088        586088        586088        586088
 MEMORY| MemLikelyFree       359325064     359325064     359325064     359325064


 GENERATE|  Preliminary Number of Bonds generated:                             0
 GENERATE|  Achieved consistency in connectivity generation.

 *******************************************************************************
 *******************************************************************************
 **                                                                           **
 **     #####                         ##              ##                      **
 **    ##   ##            ##          ##              ##                      **
 **   ##     ##                       ##            ######                    **
 **   ##     ##  ##   ##  ##   #####  ##  ##   ####   ##    #####    #####    **
 **   ##     ##  ##   ##  ##  ##      ## ##   ##      ##   ##   ##  ##   ##   **
 **   ##  ## ##  ##   ##  ##  ##      ####     ###    ##   ######   ######    **
 **    ##  ###   ##   ##  ##  ##      ## ##      ##   ##   ##       ##        **
 **     #######   #####   ##   #####  ##  ##  ####    ##    #####   ##        **
 **           ##                                                    ##        **
 **                                                                           **
 **                                                ... make the atoms dance   **
 **                                                                           **
 **            Copyright (C) by CP2K developers group (2000-2021)             **
 **                      J. Chem. Phys. 152, 194103 (2020)                    **
 **                                                                           **
 *******************************************************************************


 TOTAL NUMBERS AND MAXIMUM NUMBERS

  Total number of            - Atomic kinds:                                   2
                             - Atoms:                                          8
                             - Shell sets:                                     8
                             - Shells:                                        28
                             - Primitive Cartesian functions:                 40
                             - Cartesian basis functions:                     58
                             - Spherical basis functions:                     56

  Maximum angular momentum of- Orbital basis functions:                        2
                             - Local part of the GTH pseudopotential:          2
                             - Non-local part of the GTH pseudopotential:      0


 SCF PARAMETERS         Density guess:                                   RESTART
                        --------------------------------------------------------
                        max_scf:                                             100
                        max_scf_history:                                       0
                        max_diis:                                              4
                        --------------------------------------------------------
                        eps_scf:                                        1.00E-06
                        eps_scf_history:                                0.00E+00
                        eps_diis:                                       1.00E-01
                        eps_eigval:                                     1.00E-05
                        --------------------------------------------------------
                        level_shift [a.u.]:                                 0.00
                        --------------------------------------------------------
                        Outer loop SCF in use 
                        No variables optimised in outer loop
                        eps_scf                                         1.00E-06
                        max_scf                                                6
                        No outer loop optimization
                        step_size                                       5.00E-01

 Number of electrons:                                                         14
 Number of occupied orbitals:                                                  7
 Number of molecular orbitals:                                                 7

 Number of orbital functions:                                                 56
 Number of independent orbital functions:                                     56

 Extrapolation method: initial_guess

 *** WARNING in qs_initial_guess.F:309 :: User requested to restart the    ***
 *** wavefunction from the file named: cp2k-RESTART.wfn. This file does    ***
 *** not exist. Please check the existence of the file or change properly  ***
 *** the value of the keyword WFN_RESTART_FILE_NAME. Calculation continues ***
 *** using ATOMIC GUESS.                                                   ***



 SCF WAVEFUNCTION OPTIMIZATION

  ----------------------------------- OT ---------------------------------------
  Minimizer      : CG                  : conjugate gradient
  Preconditioner : FULL_ALL            : diagonalization, state selective
  Precond_solver : DEFAULT
  Line search    : 2PNT                : 2 energies, one gradient
  stepsize       :    0.15000000                  energy_gap     :    0.08000000
  eps_taylor     :   0.10000E-15                  max_taylor     :             4
  ----------------------------------- OT ---------------------------------------

  Step     Update method      Time    Convergence         Total energy    Change
  ------------------------------------------------------------------------------
     1 OT CG       0.15E+00    0.2     0.18268165       -14.1751774287 -1.42E+01
     2 OT LS       0.93E-01    0.1                      -14.5570905010
     3 OT CG       0.93E-01    0.2     0.06389240       -14.8150520050 -6.40E-01
     4 OT LS       0.16E+00    0.1                      -14.9189668918
     5 OT CG       0.16E+00    0.2     0.01689008       -14.9399425974 -1.25E-01
     6 OT LS       0.13E+00    0.1                      -14.9471701790
     7 OT CG       0.13E+00    0.2     0.00802952       -14.9474154404 -7.47E-03
     8 OT LS       0.99E-01    0.1                      -14.9485073963
     9 OT CG       0.99E-01    0.2     0.00206079       -14.9486653377 -1.25E-03
    10 OT LS       0.13E+00    0.1                      -14.9487696167
    11 OT CG       0.13E+00    0.2     0.00081670       -14.9487776590 -1.12E-04
    12 OT LS       0.13E+00    0.1                      -14.9487939341
    13 OT CG       0.13E+00    0.2     0.00030588       -14.9487940338 -1.64E-05
    14 OT LS       0.11E+00    0.1                      -14.9487960493
    15 OT CG       0.11E+00    0.2     0.00012435       -14.9487960797 -2.05E-06
    16 OT LS       0.14E+00    0.1                      -14.9487964920
    17 OT CG       0.14E+00    0.2     0.00004102       -14.9487965128 -4.33E-07
    18 OT LS       0.12E+00    0.1                      -14.9487965492
    19 OT CG       0.12E+00    0.2     0.00001697       -14.9487965512 -3.84E-08
    20 OT LS       0.13E+00    0.1                      -14.9487965586
    21 OT CG       0.13E+00    0.2     0.00000575       -14.9487965587 -7.53E-09
    22 OT LS       0.13E+00    0.1                      -14.9487965595
    23 OT CG       0.13E+00    0.2     0.00000282       -14.9487965595 -8.15E-10
    24 OT LS       0.11E+00    0.1                      -14.9487965597
    25 OT CG       0.11E+00    0.2     0.00000078       -14.9487965597 -1.78E-10

  *** SCF run converged in    25 steps ***


  Electronic density on regular grids:        -14.0000000000        0.0000000000
  Core density on regular grids:               13.9999999989       -0.0000000011
  Total charge density on r-space grids:       -0.0000000010
  Total charge density g-space grids:          -0.0000000010

  Overlap energy of the core charge distribution:               0.00000162311983
  Self energy of the core charge distribution:                -35.13285960674677
  Core Hamiltonian energy:                                     11.39128365039030
  Hartree energy:                                              14.44583492231037
  Exchange-correlation energy:                                 -5.65305714876048

  Total energy:                                               -14.94879655968674

  outer SCF iter =    1 RMS gradient =   0.78E-06 energy =        -14.9487965597
  outer SCF loop converged in   1 iterations or   25 steps


 ENERGY| Total FORCE_EVAL ( QS ) energy [a.u.]:              -14.948796559703169

 -------------------------------------------------------------------------------
 -                                                                             -
 -                                DBCSR STATISTICS                             -
 -                                                                             -
 -------------------------------------------------------------------------------
 COUNTER                                    TOTAL       BLAS       SMM       ACC
 flops     7 x     7 x     7                92610       0.0%    100.0%      0.0%
 flops     5 x    13 x     7               147420       0.0%    100.0%      0.0%
 flops    13 x     5 x     7               147420       0.0%    100.0%      0.0%
 flops     7 x     7 x    13               165620       0.0%    100.0%      0.0%
 flops     7 x     7 x     5               191100       0.0%    100.0%      0.0%
 flops    13 x    13 x     7               191646       0.0%    100.0%      0.0%
 flops     5 x     5 x     7               198450       0.0%    100.0%      0.0%
 flops    26 x     7 x     7               229320       0.0%    100.0%      0.0%
 flops    10 x     7 x     7               264600       0.0%    100.0%      0.0%
 flops    26 x     7 x    13               264992       0.0%    100.0%      0.0%
 flops    26 x     7 x     5               305760       0.0%    100.0%      0.0%
 flops    10 x     7 x    13               305760       0.0%    100.0%      0.0%
 flops    10 x     7 x     5               352800       0.0%    100.0%      0.0%
 flops    13 x     7 x    13               444808       0.0%    100.0%      0.0%
 flops    13 x     7 x     5               513240       0.0%    100.0%      0.0%
 flops     5 x     7 x    13               513240       0.0%    100.0%      0.0%
 flops     5 x     7 x     5               592200       0.0%    100.0%      0.0%
 flops inhomo. stacks                           0       0.0%      0.0%      0.0%
 flops total                         4.920986E+06       0.0%    100.0%      0.0%
 flops max/rank                      2.399096E+06       0.0%    100.0%      0.0%
 matmuls inhomo. stacks                         0       0.0%      0.0%      0.0%
 matmuls total                               5891       0.0%    100.0%      0.0%
 number of processed stacks                  4063       0.0%    100.0%      0.0%
 average stack size                                     0.0       1.4       0.0
 marketing flops                     5.426942E+06
 -------------------------------------------------------------------------------
 # multiplications                            393
 max memory usage/rank             179.085312E+06
 # max total images/rank                        3
 # max 3D layers                                1
 # MPI messages exchanged                  179208
 MPI messages size (bytes):
  total size                        14.362096E+06
  min size                           0.000000E+00
  max size                           2.704000E+03
  average size                      80.142044E+00
 MPI breakdown and total messages size (bytes):
             size <=      128              157072                        0
       128 < size <=     8192               22136                 14362096
      8192 < size <=    32768                   0                        0
     32768 < size <=   131072                   0                        0
    131072 < size <=  4194304                   0                        0
   4194304 < size <= 16777216                   0                        0
  16777216 < size                               0                        0
 -------------------------------------------------------------------------------

 *** WARNING in dbcsr_mm.F:294 :: Using a non-square number of MPI ranks ***
 *** might lead to poor performance. Used ranks: 24 Suggested: 25 49     ***

 -------------------------------------------------------------------------------
 -                                                                             -
 -                      DBCSR MESSAGE PASSING PERFORMANCE                      -
 -                                                                             -
 -------------------------------------------------------------------------------
 ROUTINE             CALLS      AVE VOLUME [Bytes]
 MP_Bcast               18                     12.
 MP_Allreduce         2028                      8.
 MP_Alltoall          1661                   1407.
 MP_ISend            16502                    164.
 MP_IRecv            16502                    110.
 -------------------------------------------------------------------------------

 -------------------------------------------------------------------------------
 -                                                                             -
 -                                GRID STATISTICS                              -
 -                                                                             -
 -------------------------------------------------------------------------------
 LP    KERNEL             BACKEND                              COUNT     PERCENT
 2     collocate ortho    REF                                  17576      37.96%
 3     collocate ortho    REF                                   9828      21.22%
 2     integrate ortho    REF                                   8788      18.98%
 3     integrate ortho    REF                                   4914      10.61%
 4     collocate ortho    REF                                   2444       5.28%
 4     integrate ortho    REF                                   1222       2.64%
 5     integrate ortho    REF                                    676       1.46%
 6     integrate ortho    REF                                    378       0.82%
 0     collocate general  REF                                    192       0.41%
 3     integrate general  REF                                    192       0.41%
 7     integrate ortho    REF                                     94       0.20%
 -------------------------------------------------------------------------------

 MEMORY| Estimated peak process memory [MiB]                                 171

 -------------------------------------------------------------------------------
 -                                                                             -
 -                         MESSAGE PASSING PERFORMANCE                         -
 -                                                                             -
 -------------------------------------------------------------------------------

 ROUTINE             CALLS      AVE VOLUME [Bytes]
 MP_Group                4
 MP_Bcast              491                 748813.
 MP_Allreduce         1530                    214.
 MP_Sync                60
 MP_Alltoall           388                2964096.
 MP_ISendRecv         2760                  53808.
 MP_Wait              4188
 MP_comm_split          28
 MP_ISend             1260                 171657.
 MP_IRecv             1260                 171410.
 MP_Recv                 6                    896.
 -------------------------------------------------------------------------------


 -------------------------------------------------------------------------------
 -                                                                             -
 -                           R E F E R E N C E S                               -
 -                                                                             -
 -------------------------------------------------------------------------------
 
 CP2K version 8.2, the CP2K developers group (2021).
 CP2K is freely available from https://www.cp2k.org/ .

 Kuehne,Thomas D.; Iannuzzi,Marcella; Del Ben,Mauro;
 Rybkin,Vladimir V.; Seewald,Patrick; Stein,Frederick; Laino,Teodoro;
 Khaliullin,Rustam Z.; Schuett,Ole; Schiffmann,Florian; Golze,Dorothea;
 Wilhelm,Jan; Chulkov,Sergey; Bani-Hashemian,Mohammad Hossein;
 Weber,Valery; Borstnik,Urban; Taillefumier,Mathieu;
 Jakobovits,Alice Shoshana; Lazzaro,Alfio; Pabst,Hans; Mueller,Tiziano;
 Schade,Robert; Guidon,Manuel; Andermatt,Samuel; Holmberg,Nico;
 Schenter,Gregory K.; Hehn,Anna; Bussy,Augustin; Belleflamme,Fabian;
 Tabacchi,Gloria; Gloess,Andreas; Lass,Michael; Bethune,Iain;
 Mundy,Christopher J.; Plessl,Christian; Watkins,Matt;
 VandeVondele,Joost; Krack,Matthias; Hutter,Juerg. 
 The Journal of Chemical Physics, 152 (19), (2020). 
 CP2K: An electronic structure and molecular dynamics software package -
 Quickstep: Efficient and accurate electronic structure calculations.
 https://doi.org/10.1063/5.0007045

 Schuett, Ole; Messmer, Peter; Hutter, Juerg; VandeVondele, Joost. 
 Electronic Structure Calculations on Graphics Processing Units, John
 Wiley & Sons, Ltd, 173-190 (2016). 
 GPU-Accelerated Sparse Matrix-Matrix Multiplication for
 Linear Scaling Density Functional Theory.
 https://doi.org/10.1002/9781118670712.ch8

 Heinecke, A; Henry, G; Hutchinson, M; Pabst, H. 
 Proceedings of Intl. Supercomputing Conference, 981-991 (2016). 
 LIBXSMM: Accelerating Small Matrix Multiplications
 by Runtime Code Generation.
 https://doi.org/10.1109/SC.2016.83

 Borstnik, U; VandeVondele, J; Weber, V; Hutter, J. 
 PARALLEL COMPUTING, 40 (5-6), 47-58 (2014). 
 Sparse matrix multiplication: The distributed block-compressed sparse
 row library.
 https://doi.org/10.1016/j.parco.2014.03.012

 Hutter, J; Iannuzzi, M; Schiffmann, F; VandeVondele, J. 
 WIREs Comput Mol Sci., 4 (1), 15-25 (2014). 
 CP2K: atomistic simulations of condensed matter systems.
 https://doi.org/10.1002/wcms.1159

 Marek, A; Blum, V; Johanni, R; Havu, V; Lang, B; Auckenthaler, T;
 Heinecke, A; Bungartz, H; Lederer, H. 
 Journal of Physics: Condensed Matter, 26 (21), (2014). 
 The ELPA library: scalable parallel eigenvalue solutions for
 electronic structure
 theory and computational science.
 https://doi.org/10.1088/0953-8984/26/21/213201

 VandeVondele, J; Hutter, J. 
 JOURNAL OF CHEMICAL PHYSICS, 127 (11), 114105 (2007). 
 Gaussian basis sets for accurate calculations on molecular systems in
 gas and condensed phases.
 https://doi.org/10.1063/1.2770708

 Krack, M. 
 THEORETICAL CHEMISTRY ACCOUNTS, 114 (1-3), 145-152 (2005). 
 Pseudopotentials for H to Kr optimized for gradient-corrected
 exchange-correlation functionals.
 https://doi.org/10.1007/s00214-005-0655-y

 VandeVondele, J; Krack, M; Mohamed, F; Parrinello, M; Chassaing, T;
 Hutter, J. COMPUTER PHYSICS COMMUNICATIONS, 167 (2), 103-128 (2005). 
 QUICKSTEP: Fast and accurate density functional calculations using a
 mixed Gaussian and plane waves approach.
 https://doi.org/10.1016/j.cpc.2004.12.014

 Frigo, M; Johnson, SG. 
 PROCEEDINGS OF THE IEEE, 93 (2), 216-231 (2005). 
 The design and implementation of FFTW3.
 https://doi.org/10.1109/JPROC.2004.840301

 VandeVondele, J; Hutter, J. 
 JOURNAL OF CHEMICAL PHYSICS, 118 (10), 4365-4369 (2003). 
 An efficient orbital transformation method for electronic structure
 calculations.
 https://doi.org/10.1063/1.1543154

 Hartwigsen, C; Goedecker, S; Hutter, J. 
 PHYSICAL REVIEW B, 58 (7), 3641-3662 (1998). 
 Relativistic separable dual-space Gaussian pseudopotentials from H to Rn.
 https://doi.org/10.1103/PhysRevB.58.3641

 Lippert, G; Hutter, J; Parrinello, M. 
 MOLECULAR PHYSICS, 92 (3), 477-487 (1997). 
 A hybrid Gaussian and plane wave density functional scheme.
 https://doi.org/10.1080/002689797170220

 Perdew, JP; Burke, K; Ernzerhof, M. 
 PHYSICAL REVIEW LETTERS, 77 (18), 3865-3868 (1996). 
 Generalized gradient approximation made simple.
 https://doi.org/10.1103/PhysRevLett.77.3865

 Goedecker, S; Teter, M; Hutter, J. 
 PHYSICAL REVIEW B, 54 (3), 1703-1710 (1996). 
 Separable dual-space Gaussian pseudopotentials.
 https://doi.org/10.1103/PhysRevB.54.1703


 -------------------------------------------------------------------------------
 -                                                                             -
 -                                T I M I N G                                  -
 -                                                                             -
 -------------------------------------------------------------------------------
 SUBROUTINE                       CALLS  ASD         SELF TIME        TOTAL TIME
                                MAXIMUM       AVERAGE  MAXIMUM  AVERAGE  MAXIMUM
 CP2K                                 1  1.0    0.007    0.013    4.738    4.740
 qs_forces                            1  2.0    0.000    0.000    4.616    4.616
 qs_energies                          1  3.0    0.000    0.000    4.440    4.440
 scf_env_do_scf                       1  4.0    0.000    0.000    4.318    4.318
 scf_env_do_scf_inner_loop           25  5.0    0.001    0.002    4.122    4.122
 rebuild_ks_matrix                   26  6.9    0.000    0.000    2.961    2.962
 qs_ks_build_kohn_sham_matrix        26  7.9    0.003    0.003    2.961    2.962
 qs_ks_update_qs_env                 26  6.0    0.000    0.000    2.793    2.794
 pw_transfer                        387 10.3    0.017    0.018    2.154    2.281
 qs_vxc_create                       26  8.9    0.000    0.000    2.266    2.269
 fft_wrap_pw1pw2                    335 11.4    0.003    0.003    2.124    2.252
 fft_wrap_pw1pw2_200                215 12.7    0.118    0.126    2.037    2.165
 fft3d_ps                           335 13.4    0.944    1.083    1.737    1.861
 xc_rho_set_and_dset_create          26 10.9    0.010    0.011    1.468    1.677
 xc_vxc_pw_create                    14  9.8    0.027    0.030    1.482    1.485
 qs_rho_update_rho                   26  6.0    0.000    0.000    1.146    1.147
 calculate_rho_elec                  26  7.0    0.015    0.017    1.146    1.147
 density_rs2pw                       26  8.0    0.001    0.001    0.953    0.993
 xc_functional_eval                  26 11.9    0.000    0.000    0.679    0.881
 pbe_lda_eval                        26 12.9    0.679    0.881    0.679    0.881
 mp_alltoall_z22v                   335 15.4    0.646    0.795    0.646    0.795
 xc_exc_calc                         12 10.0    0.005    0.006    0.784    0.784
 rs_pw_transfer                     162  9.9    0.002    0.002    0.622    0.652
 yz_to_x                            161 13.7    0.044    0.050    0.435    0.580
 sum_up_and_integrate                14  8.8    0.003    0.003    0.467    0.467
 integrate_v_rspace                  14  9.8    0.000    0.000    0.464    0.464
 qs_scf_new_mos                      25  6.0    0.000    0.000    0.397    0.398
 qs_scf_loop_do_ot                   25  7.0    0.000    0.000    0.397    0.398
 ot_scf_mini                         25  8.0    0.000    0.000    0.375    0.375
 x_to_yz                            174 15.1    0.098    0.113    0.354    0.371
 potential_pw2rs                     14 10.8    0.001    0.001    0.347    0.347
 dbcsr_multiply_generic             393 10.8    0.010    0.011    0.332    0.336
 rs_pw_transfer_RS2PW_200            27  9.9    0.136    0.148    0.307    0.335
 grid_collocate_task_list            26  8.0    0.150    0.289    0.150    0.289
 mp_sum_d                           870  6.8    0.159    0.277    0.159    0.277
 mp_waitany                        1260 11.8    0.194    0.233    0.194    0.233
 init_scf_loop                        1  5.0    0.000    0.000    0.195    0.195
 ot_mini                             25  9.0    0.000    0.000    0.171    0.172
 qs_ks_update_qs_env_forces           1  3.0    0.000    0.000    0.170    0.170
 mp_waitall_1                     24936 14.7    0.130    0.152    0.130    0.152
 qs_ot_get_p                         26  8.9    0.000    0.000    0.145    0.147
 qs_ot_get_derivative                13 10.0    0.000    0.000    0.143    0.144
 pw_scatter_p                       174 14.1    0.136    0.139    0.136    0.139
 multiply_cannon                    393 11.8    0.020    0.022    0.126    0.133
 rs_pw_transfer_PW2RS_200            15 12.5    0.073    0.075    0.127    0.130
 make_m2s                           786 11.8    0.008    0.010    0.124    0.129
 pw_gather_p                        161 12.7    0.124    0.128    0.124    0.128
 mp_alltoall_d11v                   452 12.8    0.103    0.121    0.103    0.121
 grid_integrate_task_list            14 10.8    0.027    0.115    0.027    0.115
 rs_gather_matrices                  14 10.8    0.000    0.000    0.090    0.106
 qs_ot_get_derivative_diag           12 11.0    0.000    0.000    0.104    0.104
 qs_ot_p2m_diag                      25 10.0    0.001    0.001    0.101    0.102
 -------------------------------------------------------------------------------

 The number of warnings for this run is : 2
 
 -------------------------------------------------------------------------------
  **** **** ******  **  PROGRAM ENDED AT                 2021-10-27 12:55:36.476
 ***** ** ***  *** **   PROGRAM RAN ON                                    node10
 **    ****   ******    PROGRAM RAN BY                                   lujunbo
 ***** **    ** ** **   PROGRAM PROCESS ID                                232472
  **** **  *******  **  PROGRAM STOPPED IN /home/lujunbo/WORK/deepmd/c2h6/mtd/tr
                                           ain_4_sys/cp2k_md/sys_4/data/task_110
                                           6
