 DBCSR| CPU Multiplication driver                                           XSMM
 DBCSR| Multrec recursion limit                                              512
 DBCSR| Multiplication stack size                                           1000
 DBCSR| Maximum elements for images                                    UNLIMITED
 DBCSR| Multiplicative factor virtual images                                   1
 DBCSR| Use multiplication densification                                       T
 DBCSR| Multiplication size stacks                                             3
 DBCSR| Use memory pool for CPU allocation                                     F
 DBCSR| Number of 3D layers                                               SINGLE
 DBCSR| Use MPI memory allocation                                              F
 DBCSR| Use RMA algorithm                                                      F
 DBCSR| Use Communication thread                                               T
 DBCSR| Communication thread load                                             87
 DBCSR| MPI: My node id                                                        0
 DBCSR| MPI: Number of nodes                                                  24
 DBCSR| OMP: Current number of threads                                         1
 DBCSR| OMP: Max number of threads                                             1
 DBCSR| Split modifier for TAS multiplication algorithm                  1.0E+00


  **** **** ******  **  PROGRAM STARTED AT               2021-10-27 13:58:41.818
 ***** ** ***  *** **   PROGRAM STARTED ON                                node10
 **    ****   ******    PROGRAM STARTED BY                               lujunbo
 ***** **    ** ** **   PROGRAM PROCESS ID                                273779
  **** **  *******  **  PROGRAM STARTED IN /home/lujunbo/WORK/deepmd/c2h6/mtd/tr
                                           ain_4_sys/cp2k_md/sys_4/data/task_164
                                           0

 CP2K| version string:                                          CP2K version 8.2
 CP2K| source code revision number:                                  git:310b7ab
 CP2K| cp2kflags: omp libint fftw3 libxc elpa parallel mpi3 scalapack xsmm plume
 CP2K|            d2 spglib mkl libvori libbqb
 CP2K| is freely available from                            https://www.cp2k.org/
 CP2K| Program compiled at                          Tue Jun  1 15:18:23 CST 2021
 CP2K| Program compiled on                                                   mgr
 CP2K| Program compiled for                                                local
 CP2K| Data directory path                       /home/lujunbo/bin/cp2k-8.2/data
 CP2K| Input file name                                                 input.inp

 GLOBAL| Force Environment number                                              1
 GLOBAL| Basis set file name            /home/lujunbo/bin/cp2k-8.2/data/BASIS_MO
 GLOBAL| Potential file name            /home/lujunbo/bin/cp2k-8.2/data/POTENTIA
 GLOBAL| MM Potential file name                                     MM_POTENTIAL
 GLOBAL| Coordinate file name                                      __STD_INPUT__
 GLOBAL| Method name                                                        CP2K
 GLOBAL| Project name                                                       cp2k
 GLOBAL| Run type                                                   ENERGY_FORCE
 GLOBAL| FFT library                                                       FFTW3
 GLOBAL| Diagonalization library                                            ELPA
 GLOBAL| Minimum number of eigenvectors for ELPA usage                        16
 GLOBAL| Orthonormality check for eigenvectors                          DISABLED
 GLOBAL| Matrix multiplication library                                    SCALAP
 GLOBAL| All-to-all communication in single precision                          F
 GLOBAL| FFTs using library dependent lengths                                  F
 GLOBAL| Grid backend                                                       AUTO
 GLOBAL| Global print level                                                  LOW
 GLOBAL| MPI I/O enabled                                                       T
 GLOBAL| Total number of message passing processes                            24
 GLOBAL| Number of threads for this process                                    1
 GLOBAL| This output is from process                                           0
 GLOBAL| CPU model name             Intel(R) Xeon(R) Platinum 9242 CPU @ 2.30GHz
 GLOBAL| CPUID                                                              1003

 MEMORY| system memory details [Kb]
 MEMORY|                        rank 0           min           max       average
 MEMORY| MemTotal            394609400     394609400     394609400     394609400
 MEMORY| MemFree             296009836     296009836     296009836     296009836
 MEMORY| Buffers                178576        178576        178576        178576
 MEMORY| Cached               62537244      62537244      62537244      62537244
 MEMORY| Slab                  1282308       1282308       1282308       1282308
 MEMORY| SReclaimable           591856        591856        591856        591856
 MEMORY| MemLikelyFree       359317512     359317512     359317512     359317512


 GENERATE|  Preliminary Number of Bonds generated:                             0
 GENERATE|  Achieved consistency in connectivity generation.

 *******************************************************************************
 *******************************************************************************
 **                                                                           **
 **     #####                         ##              ##                      **
 **    ##   ##            ##          ##              ##                      **
 **   ##     ##                       ##            ######                    **
 **   ##     ##  ##   ##  ##   #####  ##  ##   ####   ##    #####    #####    **
 **   ##     ##  ##   ##  ##  ##      ## ##   ##      ##   ##   ##  ##   ##   **
 **   ##  ## ##  ##   ##  ##  ##      ####     ###    ##   ######   ######    **
 **    ##  ###   ##   ##  ##  ##      ## ##      ##   ##   ##       ##        **
 **     #######   #####   ##   #####  ##  ##  ####    ##    #####   ##        **
 **           ##                                                    ##        **
 **                                                                           **
 **                                                ... make the atoms dance   **
 **                                                                           **
 **            Copyright (C) by CP2K developers group (2000-2021)             **
 **                      J. Chem. Phys. 152, 194103 (2020)                    **
 **                                                                           **
 *******************************************************************************


 TOTAL NUMBERS AND MAXIMUM NUMBERS

  Total number of            - Atomic kinds:                                   2
                             - Atoms:                                          8
                             - Shell sets:                                     8
                             - Shells:                                        28
                             - Primitive Cartesian functions:                 40
                             - Cartesian basis functions:                     58
                             - Spherical basis functions:                     56

  Maximum angular momentum of- Orbital basis functions:                        2
                             - Local part of the GTH pseudopotential:          2
                             - Non-local part of the GTH pseudopotential:      0


 SCF PARAMETERS         Density guess:                                   RESTART
                        --------------------------------------------------------
                        max_scf:                                             100
                        max_scf_history:                                       0
                        max_diis:                                              4
                        --------------------------------------------------------
                        eps_scf:                                        1.00E-06
                        eps_scf_history:                                0.00E+00
                        eps_diis:                                       1.00E-01
                        eps_eigval:                                     1.00E-05
                        --------------------------------------------------------
                        level_shift [a.u.]:                                 0.00
                        --------------------------------------------------------
                        Outer loop SCF in use 
                        No variables optimised in outer loop
                        eps_scf                                         1.00E-06
                        max_scf                                                6
                        No outer loop optimization
                        step_size                                       5.00E-01

 Number of electrons:                                                         14
 Number of occupied orbitals:                                                  7
 Number of molecular orbitals:                                                 7

 Number of orbital functions:                                                 56
 Number of independent orbital functions:                                     56

 Extrapolation method: initial_guess

 *** WARNING in qs_initial_guess.F:309 :: User requested to restart the    ***
 *** wavefunction from the file named: cp2k-RESTART.wfn. This file does    ***
 *** not exist. Please check the existence of the file or change properly  ***
 *** the value of the keyword WFN_RESTART_FILE_NAME. Calculation continues ***
 *** using ATOMIC GUESS.                                                   ***



 SCF WAVEFUNCTION OPTIMIZATION

  ----------------------------------- OT ---------------------------------------
  Minimizer      : CG                  : conjugate gradient
  Preconditioner : FULL_ALL            : diagonalization, state selective
  Precond_solver : DEFAULT
  Line search    : 2PNT                : 2 energies, one gradient
  stepsize       :    0.15000000                  energy_gap     :    0.08000000
  eps_taylor     :   0.10000E-15                  max_taylor     :             4
  ----------------------------------- OT ---------------------------------------

  Step     Update method      Time    Convergence         Total energy    Change
  ------------------------------------------------------------------------------
     1 OT CG       0.15E+00    0.2     0.18777002       -14.1199968989 -1.41E+01
     2 OT LS       0.90E-01    0.1                      -14.4701589996
     3 OT CG       0.90E-01    0.2     0.07734556       -14.7880917255 -6.68E-01
     4 OT LS       0.12E+00    0.1                      -14.9154979638
     5 OT CG       0.12E+00    0.2     0.03405272       -14.9234297120 -1.35E-01
     6 OT LS       0.99E-01    0.1                      -14.9449377874
     7 OT CG       0.99E-01    0.2     0.01021856       -14.9458479760 -2.24E-02
     8 OT LS       0.15E+00    0.1                      -14.9485263873
     9 OT CG       0.15E+00    0.2     0.00332898       -14.9488355740 -2.99E-03
    10 OT LS       0.82E-01    0.1                      -14.9489049479
    11 OT CG       0.82E-01    0.2     0.00165992       -14.9490127975 -1.77E-04
    12 OT LS       0.11E+00    0.1                      -14.9490694437
    13 OT CG       0.11E+00    0.2     0.00051360       -14.9490743299 -6.15E-05
    14 OT LS       0.12E+00    0.1                      -14.9490805756
    15 OT CG       0.12E+00    0.3     0.00017682       -14.9490805980 -6.27E-06
    16 OT LS       0.15E+00    0.1                      -14.9490814659
    17 OT CG       0.15E+00    0.2     0.00007250       -14.9490814912 -8.93E-07
    18 OT LS       0.91E-01    0.1                      -14.9490815498
    19 OT CG       0.91E-01    0.2     0.00003648       -14.9490815845 -9.33E-08
    20 OT LS       0.10E+00    0.1                      -14.9490816110
    21 OT CG       0.10E+00    0.2     0.00001367       -14.9490816113 -2.68E-08
    22 OT LS       0.13E+00    0.1                      -14.9490816158
    23 OT CG       0.13E+00    0.2     0.00000504       -14.9490816160 -4.68E-09
    24 OT LS       0.12E+00    0.1                      -14.9490816166
    25 OT CG       0.12E+00    0.2     0.00000170       -14.9490816166 -6.17E-10
    26 OT LS       0.13E+00    0.1                      -14.9490816167
    27 OT CG       0.13E+00    0.2     0.00000098       -14.9490816167 -7.23E-11

  *** SCF run converged in    27 steps ***


  Electronic density on regular grids:        -14.0000000000        0.0000000000
  Core density on regular grids:               13.9999999989       -0.0000000011
  Total charge density on r-space grids:       -0.0000000010
  Total charge density g-space grids:          -0.0000000010

  Overlap energy of the core charge distribution:               0.00000149733401
  Self energy of the core charge distribution:                -35.13285960674677
  Core Hamiltonian energy:                                     11.38257717856658
  Hartree energy:                                              14.45143422648965
  Exchange-correlation energy:                                 -5.65023491235493

  Total energy:                                               -14.94908161671146

  outer SCF iter =    1 RMS gradient =   0.98E-06 energy =        -14.9490816167
  outer SCF loop converged in   1 iterations or   27 steps


 ENERGY| Total FORCE_EVAL ( QS ) energy [a.u.]:              -14.949081616721738

 -------------------------------------------------------------------------------
 -                                                                             -
 -                                DBCSR STATISTICS                             -
 -                                                                             -
 -------------------------------------------------------------------------------
 COUNTER                                    TOTAL       BLAS       SMM       ACC
 flops     7 x     7 x     7               100156       0.0%    100.0%      0.0%
 flops     5 x    13 x     7               158340       0.0%    100.0%      0.0%
 flops    13 x     5 x     7               158340       0.0%    100.0%      0.0%
 flops     7 x     7 x    13               178360       0.0%    100.0%      0.0%
 flops     7 x     7 x     5               205800       0.0%    100.0%      0.0%
 flops    13 x    13 x     7               205842       0.0%    100.0%      0.0%
 flops     5 x     5 x     7               213150       0.0%    100.0%      0.0%
 flops    26 x     7 x     7               247156       0.0%    100.0%      0.0%
 flops    26 x     7 x    13               283920       0.0%    100.0%      0.0%
 flops    10 x     7 x     7               285180       0.0%    100.0%      0.0%
 flops    26 x     7 x     5               327600       0.0%    100.0%      0.0%
 flops    10 x     7 x    13               327600       0.0%    100.0%      0.0%
 flops    10 x     7 x     5               378000       0.0%    100.0%      0.0%
 flops    13 x     7 x    13               473200       0.0%    100.0%      0.0%
 flops    13 x     7 x     5               546000       0.0%    100.0%      0.0%
 flops     5 x     7 x    13               546000       0.0%    100.0%      0.0%
 flops     5 x     7 x     5               630000       0.0%    100.0%      0.0%
 flops inhomo. stacks                           0       0.0%      0.0%      0.0%
 flops total                         5.264644E+06       0.0%    100.0%      0.0%
 flops max/rank                      2.568034E+06       0.0%    100.0%      0.0%
 matmuls inhomo. stacks                         0       0.0%      0.0%      0.0%
 matmuls total                               6298       0.0%    100.0%      0.0%
 number of processed stacks                  4350       0.0%    100.0%      0.0%
 average stack size                                     0.0       1.4       0.0
 marketing flops                     5.807672E+06
 -------------------------------------------------------------------------------
 # multiplications                            423
 max memory usage/rank             179.994624E+06
 # max total images/rank                        3
 # max 3D layers                                1
 # MPI messages exchanged                  192888
 MPI messages size (bytes):
  total size                        15.364440E+06
  min size                           0.000000E+00
  max size                           2.704000E+03
  average size                      79.654724E+00
 MPI breakdown and total messages size (bytes):
             size <=      128              169187                        0
       128 < size <=     8192               23701                 15364440
      8192 < size <=    32768                   0                        0
     32768 < size <=   131072                   0                        0
    131072 < size <=  4194304                   0                        0
   4194304 < size <= 16777216                   0                        0
  16777216 < size                               0                        0
 -------------------------------------------------------------------------------

 *** WARNING in dbcsr_mm.F:294 :: Using a non-square number of MPI ranks ***
 *** might lead to poor performance. Used ranks: 24 Suggested: 25 49     ***

 -------------------------------------------------------------------------------
 -                                                                             -
 -                      DBCSR MESSAGE PASSING PERFORMANCE                      -
 -                                                                             -
 -------------------------------------------------------------------------------
 ROUTINE             CALLS      AVE VOLUME [Bytes]
 MP_Bcast               18                     12.
 MP_Allreduce         2180                      8.
 MP_Alltoall          1766                   1398.
 MP_ISend            17762                    164.
 MP_IRecv            17762                    110.
 -------------------------------------------------------------------------------

 -------------------------------------------------------------------------------
 -                                                                             -
 -                                GRID STATISTICS                              -
 -                                                                             -
 -------------------------------------------------------------------------------
 LP    KERNEL             BACKEND                              COUNT     PERCENT
 2     collocate ortho    REF                                  18872      38.00%
 3     collocate ortho    REF                                  10584      21.31%
 2     integrate ortho    REF                                   9436      19.00%
 3     integrate ortho    REF                                   5292      10.66%
 4     collocate ortho    REF                                   2632       5.30%
 4     integrate ortho    REF                                   1316       2.65%
 5     integrate ortho    REF                                    674       1.36%
 6     integrate ortho    REF                                    378       0.76%
 0     collocate general  REF                                    192       0.39%
 3     integrate general  REF                                    192       0.39%
 7     integrate ortho    REF                                     94       0.19%
 -------------------------------------------------------------------------------

 MEMORY| Estimated peak process memory [MiB]                                 172

 -------------------------------------------------------------------------------
 -                                                                             -
 -                         MESSAGE PASSING PERFORMANCE                         -
 -                                                                             -
 -------------------------------------------------------------------------------

 ROUTINE             CALLS      AVE VOLUME [Bytes]
 MP_Group                4
 MP_Bcast              525                 700353.
 MP_Allreduce         1620                    204.
 MP_Sync                64
 MP_Alltoall           416                2970387.
 MP_ISendRecv         2967                  53808.
 MP_Wait              4497
 MP_comm_split          30
 MP_ISend             1350                 171659.
 MP_IRecv             1350                 171408.
 MP_Recv                 6                    896.
 -------------------------------------------------------------------------------


 -------------------------------------------------------------------------------
 -                                                                             -
 -                           R E F E R E N C E S                               -
 -                                                                             -
 -------------------------------------------------------------------------------
 
 CP2K version 8.2, the CP2K developers group (2021).
 CP2K is freely available from https://www.cp2k.org/ .

 Kuehne,Thomas D.; Iannuzzi,Marcella; Del Ben,Mauro;
 Rybkin,Vladimir V.; Seewald,Patrick; Stein,Frederick; Laino,Teodoro;
 Khaliullin,Rustam Z.; Schuett,Ole; Schiffmann,Florian; Golze,Dorothea;
 Wilhelm,Jan; Chulkov,Sergey; Bani-Hashemian,Mohammad Hossein;
 Weber,Valery; Borstnik,Urban; Taillefumier,Mathieu;
 Jakobovits,Alice Shoshana; Lazzaro,Alfio; Pabst,Hans; Mueller,Tiziano;
 Schade,Robert; Guidon,Manuel; Andermatt,Samuel; Holmberg,Nico;
 Schenter,Gregory K.; Hehn,Anna; Bussy,Augustin; Belleflamme,Fabian;
 Tabacchi,Gloria; Gloess,Andreas; Lass,Michael; Bethune,Iain;
 Mundy,Christopher J.; Plessl,Christian; Watkins,Matt;
 VandeVondele,Joost; Krack,Matthias; Hutter,Juerg. 
 The Journal of Chemical Physics, 152 (19), (2020). 
 CP2K: An electronic structure and molecular dynamics software package -
 Quickstep: Efficient and accurate electronic structure calculations.
 https://doi.org/10.1063/5.0007045

 Schuett, Ole; Messmer, Peter; Hutter, Juerg; VandeVondele, Joost. 
 Electronic Structure Calculations on Graphics Processing Units, John
 Wiley & Sons, Ltd, 173-190 (2016). 
 GPU-Accelerated Sparse Matrix-Matrix Multiplication for
 Linear Scaling Density Functional Theory.
 https://doi.org/10.1002/9781118670712.ch8

 Heinecke, A; Henry, G; Hutchinson, M; Pabst, H. 
 Proceedings of Intl. Supercomputing Conference, 981-991 (2016). 
 LIBXSMM: Accelerating Small Matrix Multiplications
 by Runtime Code Generation.
 https://doi.org/10.1109/SC.2016.83

 Borstnik, U; VandeVondele, J; Weber, V; Hutter, J. 
 PARALLEL COMPUTING, 40 (5-6), 47-58 (2014). 
 Sparse matrix multiplication: The distributed block-compressed sparse
 row library.
 https://doi.org/10.1016/j.parco.2014.03.012

 Hutter, J; Iannuzzi, M; Schiffmann, F; VandeVondele, J. 
 WIREs Comput Mol Sci., 4 (1), 15-25 (2014). 
 CP2K: atomistic simulations of condensed matter systems.
 https://doi.org/10.1002/wcms.1159

 Marek, A; Blum, V; Johanni, R; Havu, V; Lang, B; Auckenthaler, T;
 Heinecke, A; Bungartz, H; Lederer, H. 
 Journal of Physics: Condensed Matter, 26 (21), (2014). 
 The ELPA library: scalable parallel eigenvalue solutions for
 electronic structure
 theory and computational science.
 https://doi.org/10.1088/0953-8984/26/21/213201

 VandeVondele, J; Hutter, J. 
 JOURNAL OF CHEMICAL PHYSICS, 127 (11), 114105 (2007). 
 Gaussian basis sets for accurate calculations on molecular systems in
 gas and condensed phases.
 https://doi.org/10.1063/1.2770708

 Krack, M. 
 THEORETICAL CHEMISTRY ACCOUNTS, 114 (1-3), 145-152 (2005). 
 Pseudopotentials for H to Kr optimized for gradient-corrected
 exchange-correlation functionals.
 https://doi.org/10.1007/s00214-005-0655-y

 VandeVondele, J; Krack, M; Mohamed, F; Parrinello, M; Chassaing, T;
 Hutter, J. COMPUTER PHYSICS COMMUNICATIONS, 167 (2), 103-128 (2005). 
 QUICKSTEP: Fast and accurate density functional calculations using a
 mixed Gaussian and plane waves approach.
 https://doi.org/10.1016/j.cpc.2004.12.014

 Frigo, M; Johnson, SG. 
 PROCEEDINGS OF THE IEEE, 93 (2), 216-231 (2005). 
 The design and implementation of FFTW3.
 https://doi.org/10.1109/JPROC.2004.840301

 VandeVondele, J; Hutter, J. 
 JOURNAL OF CHEMICAL PHYSICS, 118 (10), 4365-4369 (2003). 
 An efficient orbital transformation method for electronic structure
 calculations.
 https://doi.org/10.1063/1.1543154

 Hartwigsen, C; Goedecker, S; Hutter, J. 
 PHYSICAL REVIEW B, 58 (7), 3641-3662 (1998). 
 Relativistic separable dual-space Gaussian pseudopotentials from H to Rn.
 https://doi.org/10.1103/PhysRevB.58.3641

 Lippert, G; Hutter, J; Parrinello, M. 
 MOLECULAR PHYSICS, 92 (3), 477-487 (1997). 
 A hybrid Gaussian and plane wave density functional scheme.
 https://doi.org/10.1080/002689797170220

 Perdew, JP; Burke, K; Ernzerhof, M. 
 PHYSICAL REVIEW LETTERS, 77 (18), 3865-3868 (1996). 
 Generalized gradient approximation made simple.
 https://doi.org/10.1103/PhysRevLett.77.3865

 Goedecker, S; Teter, M; Hutter, J. 
 PHYSICAL REVIEW B, 54 (3), 1703-1710 (1996). 
 Separable dual-space Gaussian pseudopotentials.
 https://doi.org/10.1103/PhysRevB.54.1703


 -------------------------------------------------------------------------------
 -                                                                             -
 -                                T I M I N G                                  -
 -                                                                             -
 -------------------------------------------------------------------------------
 SUBROUTINE                       CALLS  ASD         SELF TIME        TOTAL TIME
                                MAXIMUM       AVERAGE  MAXIMUM  AVERAGE  MAXIMUM
 CP2K                                 1  1.0    0.006    0.014    4.866    4.867
 qs_forces                            1  2.0    0.000    0.000    4.759    4.759
 qs_energies                          1  3.0    0.000    0.000    4.583    4.583
 scf_env_do_scf                       1  4.0    0.000    0.000    4.489    4.489
 scf_env_do_scf_inner_loop           27  5.0    0.001    0.002    4.322    4.322
 rebuild_ks_matrix                   28  6.9    0.000    0.000    3.085    3.087
 qs_ks_build_kohn_sham_matrix        28  7.9    0.003    0.003    3.085    3.086
 qs_ks_update_qs_env                 28  6.0    0.000    0.000    2.919    2.920
 qs_vxc_create                       28  8.9    0.000    0.000    2.357    2.361
 pw_transfer                        416 10.4    0.017    0.018    2.171    2.309
 fft_wrap_pw1pw2                    360 11.4    0.003    0.003    2.142    2.281
 fft_wrap_pw1pw2_200                231 12.7    0.117    0.127    2.036    2.174
 fft3d_ps                           360 13.4    0.967    1.109    1.748    1.881
 xc_rho_set_and_dset_create          28 10.9    0.011    0.011    1.559    1.777
 xc_vxc_pw_create                    15  9.8    0.027    0.031    1.546    1.550
 qs_rho_update_rho                   28  6.0    0.000    0.000    1.127    1.128
 calculate_rho_elec                  28  7.0    0.016    0.018    1.127    1.128
 density_rs2pw                       28  8.0    0.001    0.001    0.936    0.978
 xc_functional_eval                  28 11.9    0.000    0.000    0.728    0.944
 pbe_lda_eval                        28 12.9    0.728    0.944    0.728    0.944
 mp_alltoall_z22v                   360 15.4    0.636    0.814    0.636    0.814
 xc_exc_calc                         13 10.0    0.006    0.007    0.810    0.810
 rs_pw_transfer                     174  9.9    0.002    0.002    0.634    0.662
 yz_to_x                            173 13.7    0.042    0.050    0.373    0.532
 sum_up_and_integrate                15  8.8    0.003    0.003    0.482    0.482
 integrate_v_rspace                  15  9.8    0.000    0.000    0.479    0.479
 qs_scf_new_mos                      27  6.0    0.000    0.000    0.446    0.447
 qs_scf_loop_do_ot                   27  7.0    0.000    0.000    0.446    0.447
 x_to_yz                            187 15.1    0.098    0.119    0.403    0.424
 ot_scf_mini                         27  8.0    0.000    0.000    0.420    0.421
 dbcsr_multiply_generic             423 10.8    0.011    0.012    0.367    0.371
 potential_pw2rs                     15 10.8    0.001    0.001    0.359    0.360
 rs_pw_transfer_RS2PW_200            29  9.9    0.123    0.133    0.305    0.332
 mp_sum_d                           906  7.0    0.180    0.307    0.180    0.307
 grid_collocate_task_list            28  8.0    0.141    0.277    0.141    0.277
 mp_waitany                        1350 11.8    0.207    0.240    0.207    0.240
 ot_mini                             27  9.0    0.000    0.000    0.186    0.187
 qs_ot_get_p                         28  8.9    0.000    0.000    0.167    0.170
 qs_ks_update_qs_env_forces           1  3.0    0.000    0.000    0.169    0.169
 init_scf_loop                        1  5.0    0.000    0.000    0.166    0.166
 mp_waitall_1                     26835 14.7    0.141    0.160    0.141    0.160
 qs_ot_get_derivative                14 10.0    0.000    0.000    0.155    0.156
 multiply_cannon                    423 11.8    0.021    0.023    0.137    0.144
 pw_scatter_p                       187 14.1    0.140    0.143    0.140    0.143
 make_m2s                           846 11.8    0.009    0.010    0.136    0.141
 rs_pw_transfer_PW2RS_200            16 12.5    0.074    0.078    0.133    0.136
 pw_gather_p                        173 12.7    0.128    0.133    0.128    0.133
 mp_alltoall_d11v                   476 12.8    0.109    0.126    0.109    0.126
 qs_ot_p2m_diag                      27 10.0    0.001    0.001    0.118    0.120
 grid_integrate_task_list            15 10.8    0.028    0.117    0.028    0.117
 qs_ot_get_derivative_diag           13 11.0    0.000    0.000    0.113    0.114
 rs_gather_matrices                  15 10.8    0.000    0.000    0.091    0.107
 make_images                        846 12.8    0.014    0.017    0.096    0.099
 -------------------------------------------------------------------------------

 The number of warnings for this run is : 2
 
 -------------------------------------------------------------------------------
  **** **** ******  **  PROGRAM ENDED AT                 2021-10-27 13:58:47.227
 ***** ** ***  *** **   PROGRAM RAN ON                                    node10
 **    ****   ******    PROGRAM RAN BY                                   lujunbo
 ***** **    ** ** **   PROGRAM PROCESS ID                                273779
  **** **  *******  **  PROGRAM STOPPED IN /home/lujunbo/WORK/deepmd/c2h6/mtd/tr
                                           ain_4_sys/cp2k_md/sys_4/data/task_164
                                           0
