       8
 i =        0, time =        0.000, E =       -14.9507520345
  C        -2.7700694500        1.2735381400        0.0000000000
  C        -1.2698194500        1.2735381400        0.0000000000
  H        -3.1651834500        1.7960530300        0.9049082700
  H        -3.1654054500        1.7960031900       -0.9048509600
  H        -3.1654644500        0.2287103000        0.0000881100
  H        -0.8743194500        0.7512012200        0.9047200500
  H        -0.8747974500        0.7511246000       -0.9050521600
  H        -0.8747794500        2.3185347200       -0.0000881300
       8
 i =        1, time =        0.500, E =       -14.9505665125
  C        -2.7699566505        1.2739428481       -0.0000876466
  C        -1.2703157519        1.2737059962       -0.0005525185
  H        -3.1590868680        1.7919521189        0.9069606409
  H        -3.1597400970        1.7941286289       -0.9028451419
  H        -3.1636673381        0.2281162405        0.0048650571
  H        -0.8745237839        0.7502652331        0.9072177298
  H        -0.8797531994        0.7487245170       -0.9062947172
  H        -0.8786137412        2.3216204558       -0.0025501250
       8
 i =        2, time =        1.000, E =       -14.9505423979
  C        -2.7700793541        1.2743216605       -0.0001556572
  C        -1.2705521332        1.2738712527       -0.0010938908
  H        -3.1530871446        1.7872333632        0.9077632302
  H        -3.1542396633        1.7916330083       -0.8997309427
  H        -3.1618430993        0.2290877015        0.0095664572
  H        -0.8748181898        0.7502206982        0.9081929341
  H        -0.8846759886        0.7471370202       -0.9061719171
  H        -0.8824572597        2.3230206725       -0.0050044623
       8
 i =        3, time =        1.500, E =       -14.9506389303
  C        -2.7704106830        1.2746505917       -0.0001852766
  C        -1.2705322375        1.2740310299       -0.0016142151
  H        -3.1473356140        1.7820879782        0.9074914415
  H        -3.1491266452        1.7887103539       -0.8958144661
  H        -3.1600378250        0.2315389596        0.0141285689
  H        -0.8752115452        0.7511270001        0.9075651705
  H        -0.8894717523        0.7463420478       -0.9047525662
  H        -0.8862520255        2.3227165227       -0.0074484819
       8
 i =        4, time =        2.000, E =       -14.9507825196
  C        -2.7709160801        1.2749082125       -0.0001590043
  C        -1.2702702990        1.2741826707       -0.0021052646
  H        -3.1420004261        1.7767452096        0.9063944365
  H        -3.1446352113        1.7855900191       -0.8914641140
  H        -3.1583262497        0.2352800535        0.0184907192
  H        -0.8756756895        0.7529789492        0.9053644638
  H        -0.8940215655        0.7462665733       -0.9021947708
  H        -0.8899103506        2.3208044886       -0.0098803839
       8
 i =        5, time =        2.500, E =       -14.9508908532
  C        -2.7715554475        1.2750772023       -0.0000617031
  C        -1.2697903793        1.2743237796       -0.0025610678
  H        -3.1372579091        1.7714606670        0.9047774729
  H        -3.1409977941        1.7825199455       -0.8870817885
  H        -3.1568083350        0.2400263193        0.0225969976
  H        -0.8761459638        0.7557074559        0.9017302414
  H        -0.8981868465        0.7467890983       -0.8987369357
  H        -0.8933181848        2.3174911526       -0.0122998513
       8
 i =        6, time =        3.000, E =       -14.9508998038
  C        -2.7722857907        1.2751459699        0.0001182464
  C        -1.2691251177        1.2744522496       -0.0029785336
  H        -3.1332822202        1.7665015191        0.9029782101
  H        -3.1384295575        1.7797460818       -0.8830672479
  H        -3.1556040097        0.2454140702        0.0263977505
  H        -0.8765235926        0.7591830382        0.8969053171
  H        -0.9018163135        0.7477473864       -0.8946834077
  H        -0.8963401944        2.3130819984       -0.0147085989
       8
 i =        7, time =        3.500, E =       -14.9507853547
  C        -2.7730642929        1.2751101195        0.0003879259
  C        -1.2683139658        1.2745662841       -0.0033580965
  H        -3.1302336369        1.7621288966        0.9013373034
  H        -3.1371117981        1.7774892663       -0.8797780301
  H        -3.1548456942        0.2510235303        0.0298507355
  H        -0.8766801707        0.7632226426        0.8912240904
  H        -0.9047546934        0.7489497528       -0.8903842949
  H        -0.8988267323        2.3079633592       -0.0171107801
       8
 i =        8, time =        4.000, E =       -14.9505737742
  C        -2.7738516079        1.2749734198        0.0007492478
  C        -1.2674008349        1.2746644206       -0.0037042728
  H        -3.1282462811        1.7585786344        0.9001655047
  H        -3.1371761877        1.7759224110       -0.8774899689
  H        -3.1546685633        0.2564090896        0.0329218030
  H        -0.8764647886        0.7676004984        0.8850936588
  H        -0.9068530329        0.7501899318       -0.8862095262
  H        -0.9006228517        2.3025766648       -0.0195131539
       8
 i =        9, time =        4.500, E =       -14.9503359626
  C        -2.7746150488        1.2747479092        0.0011989461
  C        -1.2664311759        1.2747455626       -0.0040259565
  H        -3.1274165370        1.7560422547        0.8997108038
  H        -3.1386921463        1.7751515421       -0.8763646281
  H        -3.1551987697        0.2611358485        0.0355850370
  H        -0.8757142897        0.7720635762        0.8789668665
  H        -0.9079801392        0.7512648624       -0.8825183256
  H        -0.9015793307        2.2973850103       -0.0219248949
       8
 i =       10, time =        5.000, E =       -14.9501666381
  C        -2.7753313242        1.2744528711        0.0017293142
  C        -1.2654485879        1.2748090195       -0.0043362487
  H        -3.1277935994        1.7546505799        0.9001302515
  H        -3.1416594720        1.7752041275       -0.8764297430
  H        -3.1565403237        0.2648197651        0.0378223469
  H        -0.8742667923        0.7763515925        0.8733073093
  H        -0.9080342208        0.7519938716       -0.8796266566
  H        -0.9015652243        2.2928335654       -0.0243569384
       8
 i =       11, time =        5.500, E =       -14.9501538122
  C        -2.7759884494        1.2741126642        0.0023296107
  C        -1.2644912018        1.2748545434       -0.0046516465
  H        -3.1293735774        1.7544624102        0.9014711806
  H        -3.1460075866        1.7760269819       -0.8775766915
  H        -3.1587619852        0.2671668877        0.0396226782
  H        -0.8719780298        0.7802205902        0.8685479483
  H        -0.9069534715        0.7522370065       -0.8777763974
  H        -0.9004809865        2.2893072883       -0.0268208093
       8
 i =       12, time =        6.000, E =       -14.9503477908
  C        -2.7765865596        1.2737537147        0.0029878484
  C        -1.2635882245        1.2748823453       -0.0049905498
  H        -3.1320981720        1.7554601535        0.9036654227
  H        -3.1516015245        1.7774940793       -0.8795754220
  H        -3.1618860388        0.2680057751        0.0409811042
  H        -0.8687391073        0.7834677380        0.8650474167
  H        -0.9047241758        0.7519098018       -0.8771107233
  H        -0.8982706712        2.2870911118       -0.0293270067
       8
 i =       13, time =        6.500, E =       -14.9507404203
  C        -2.7771375025        1.2734012474        0.0036925645
  C        -1.2627571289        1.2748930740       -0.0053712466
  H        -3.1358582160        1.7575531144        0.9065376676
  H        -3.1582534756        1.7794224961       -0.8821035295
  H        -3.1658809633        0.2673073836        0.0418981123
  H        -0.8644932957        0.7859537650        0.8630502035
  H        -0.9013850421        0.7509919991       -0.8776597776
  H        -0.8949313948        2.2863389045       -0.0318831578
       8
 i =       14, time =        7.000, E =       -14.9512631710
  C        -2.7776632770        1.2730764094        0.0044342034
  C        -1.2620019676        1.2748877561       -0.0058097371
  H        -3.1405015526        1.7605877795        0.9098263600
  H        -3.1657379263        1.7815933110       -0.8847836958
  H        -3.1706595771        0.2651882748        0.0423793290
  H        -0.8592488823        0.7876189934        0.8626578164
  H        -0.8970269383        0.7495286711       -0.8793391473
  H        -0.8905183309        2.2870568431       -0.0344922628
       8
 i =       15, time =        7.500, E =       -14.9518063727
  C        -2.7781935363        1.2727943012        0.0052058998
  C        -1.2613131535        1.2748677143       -0.0063178591
  H        -3.1458440883        1.7643633116        0.9132133321
  H        -3.1738081560        1.7837739520       -0.8872231813
  H        -3.1760832845        0.2618964784        0.0424357614
  H        -0.8530852984        0.7884896249        0.8638168936
  H        -0.8917879499        0.7476236225       -0.8819613108
  H        -0.8851441081        2.2891045152       -0.0371513918
       8
 i =       16, time =        8.000, E =       -14.9522535181
  C        -2.7787624912        1.2725631366        0.0060036486
  C        -1.2606687944        1.2748344939       -0.0069021077
  H        -3.1516825319        1.7686498531        0.9163573219
  H        -3.1822122309        1.7857390632       -0.8890501962
  H        -3.1819718748        0.2577825452        0.0420844420
  H        -0.8461508951        0.7886728594        0.8663269755
  H        -0.8858444596        0.7454263791       -0.8852578443
  H        -0.8789724721        2.2922134021       -0.0398511190
       8
 i =       17, time =        8.500, E =       -14.9525178868
  C        -2.7794055829        1.2723844393        0.0068259999
  C        -1.2600373788        1.2747898219       -0.0075633313
  H        -3.1578073271        1.7732072680        0.9189267971
  H        -3.1907072122        1.7872880362       -0.8899439563
  H        -3.1881172794        0.2532611787        0.0413492162
  H        -0.8386525289        0.7883419216        0.8698662992
  H        -0.8793994653        0.7431150993       -0.8889085013
  H        -0.8722070992        2.2960192363       -0.0425758100
       8
 i =       18, time =        9.000, E =       -14.9525679011
  C        -2.7801562616        1.2722539769        0.0076734823
  C        -1.2593813718        1.2747356037       -0.0082972311
  H        -3.1640146888        1.7778024662        0.9206287661
  H        -3.1990710103        1.7882584083       -0.8896571460
  H        -3.1942992171        0.2487696204        0.0402613854
  H        -0.8308388396        0.7877141785        0.8740302133
  H        -0.8726696033        0.7408780412       -0.8925727558
  H        -0.8650772578        2.3001022348       -0.0453046888
       8
 i =       19, time =        9.500, E =       -14.9524328269
  C        -2.7810431301        1.2721630644        0.0085479426
  C        -1.2586611816        1.2746739433       -0.0090953999
  H        -3.1701169866        1.7822241458        0.9212316843
  H        -3.2071117300        1.7885351801       -0.8880310259
  H        -3.2003006981        0.2447282199        0.0388599923
  H        -0.8229801720        0.7870264850        0.8783750773
  H        -0.8658722695        0.7388958805       -0.8959199389
  H        -0.8578222822        2.3040290631       -0.0480134622
       8
 i =       20, time =       10.000, E =       -14.9521886744
  C        -2.7820876056        1.2720999322        0.0094519307
  C        -1.2578390073        1.2746071620       -0.0099465794
  H        -3.1759511122        1.7862944203        0.9205818154
  H        -3.2146745998        1.7880564398       -0.8850039677
  H        -3.2059218102        0.2415070197        0.0371916354
  H        -0.8153482112        0.7865115714        0.8824608486
  H        -0.8592138734        0.7373264749       -0.8986552869
  H        -0.8506766134        2.3073913350       -0.0506762242
       8
 i =       21, time =       10.500, E =       -14.9519310157
  C        -2.7833021606        1.2720509724        0.0103881791
  C        -1.2568822002        1.2745377996       -0.0108378734
  H        -3.1813847733        1.7898773252        0.9186134460
  H        -3.2216466597        1.7868158618       -0.8806144919
  H        -3.2109909545        0.2393999865        0.0353098246
  H        -0.8081976781        0.7863780973        0.8858876253
  H        -0.8528799106        0.7362929116       -0.9005404875
  H        -0.8438567201        2.3098374176       -0.0532673745
       8
 i =       22, time =       11.000, E =       -14.9517445547
  C        -2.7846891582        1.2720018026        0.0113591778
  C        -1.2557659531        1.2744685844       -0.0117557642
  H        -3.1863207863        1.7928843767        0.9153535833
  H        -3.2279592565        1.7848624735       -0.8749995350
  H        -3.2153732479        0.2386070414        0.0332739550
  H        -0.8017514010        0.7867955170        0.8883239683
  H        -0.8470271297        0.7358749875       -0.9014084535
  H        -0.8375505009        2.3110963970       -0.0557633875
       8
 i =       23, time =       11.500, E =       -14.9516785028
  C        -2.7862402692        1.2719381833        0.0123668002
  C        -1.2544752700        1.2744023741       -0.0126868943
  H        -3.1906994746        1.7952774789        0.9109217460
  H        -3.2335883151        1.7822978243       -0.8683881807
  H        -3.2189762001        0.2392231337        0.0311479807
  H        -0.7961891128        0.7878837442        0.8895268208
  H        -0.8417778213        0.7361038917       -0.9011726362
  H        -0.8319093270        2.3109943689       -0.0581443273
       8
 i =       24, time =       12.000, E =       -14.9517339249
  C        -2.7879364824        1.2718468788        0.0134119300
  C        -1.2530062490        1.2743420719       -0.0136186561
  H        -3.1944991594        1.7970691826        0.9055250837
  H        -3.2385520690        1.7792703817       -0.8610905594
  H        -3.2217529333        0.2412333854        0.0289988664
  H        -0.7916397315        0.7897069817        0.8893540335
  H        -0.8372161305        0.7369597849       -0.8998314917
  H        -0.8270425660        2.3094639560       -0.0603950871
       8
 i =       25, time =       12.500, E =       -14.9518655265
  C        -2.7897487428        1.2717165609        0.0144940450
  C        -1.2513667317        1.2742905249       -0.0145396699
  H        -3.1977346078        1.7983202195        0.8994487418
  H        -3.2429059413        1.7759668150       -0.8534813274
  H        -3.2237031757        0.2445136378        0.0268948734
  H        -0.7881766277        0.7922708907        0.8877708703
  H        -0.8333863345        0.7383720418       -0.8974684782
  H        -0.8230143469        2.3065479600       -0.0625063561
       8
 i =       26, time =       13.000, E =       -14.9519967695
  C        -2.7916392786        1.2715388210        0.0156107428
  C        -1.2495763493        1.2742504128       -0.0154402338
  H        -3.2004532023        1.7991339506        0.8930410553
  H        -3.2467341912        1.7725998344       -0.8459771531
  H        -3.2248720543        0.2488362991        0.0249037094
  H        -0.7858154664        0.7955224911        0.8848515128
  H        -0.8302931256        0.7402221359       -0.8942476689
  H        -0.8198424774        2.3023977034       -0.0644753170
       8
 i =       27, time =       13.500, E =       -14.9520443429
  C        -2.7935636688        1.2713092847        0.0167572412
  C        -1.2476659498        1.2742241353       -0.0163128028
  H        -3.2027285749        1.7996473510        0.8866931742
  H        -3.2501382766        1.7693925377       -0.8390081958
  H        -3.2253464843        0.2538819867        0.0230905996
  H        -0.7845144825        0.7993525569        0.8807759036
  H        -0.8279040972        0.7423493581       -0.8904046797
  H        -0.8174995447        2.2972660004       -0.0663060496
       8
 i =       28, time =       14.000, E =       -14.9519454522
  C        -2.7954736426        1.2710287205        0.0179259383
  C        -1.2456763453        1.2742137103       -0.0171525079
  H        -3.2046516142        1.8000183317        0.8808131620
  H        -3.2532224302        1.7665599053       -0.8329847803
  H        -3.2252488219        0.2592578115        0.0215163697
  H        -0.7841773868        0.8036006645        0.8758215571
  H        -0.8261546486        0.7445596405       -0.8862324829
  H        -0.8159164734        2.2914941565       -0.0680095725
       8
 i =       29, time =       14.500, E =       -14.9516803607
  C        -2.7973204912        1.2707039204        0.0191061659
  C        -1.2436563097        1.2742206958       -0.0179576672
  H        -3.2063191301        1.8004097290        0.8757956158
  H        -3.2560778035        1.7642889576       -0.8282619192
  H        -3.2247274528        0.2645230841        0.0202356703
  H        -0.7846593840        0.8080633886        0.8703493330
  H        -0.8249555011        0.7466376898       -0.8820618202
  H        -0.8149888949        2.2854922393       -0.0696034407
       8
 i =       30, time =       15.000, E =       -14.9512830259
  C        -2.7990588138        1.2703480557        0.0202842839
  C        -1.2416597904        1.2742461519       -0.0187301723
  H        -3.2078210468        1.8009710605        0.8719890514
  H        -3.2587673029        1.7627199387       -0.8251059687
  H        -3.2239442563        0.2692224652        0.0192955036
  H        -0.7857768893        0.8125062205        0.8647819664
  H        -0.8242027041        0.7483622811       -0.8782364692
  H        -0.8145865850        2.2797120053       -0.0711107779
       8
 i =       31, time =       15.500, E =       -14.9508353299
  C        -2.8006501831        1.2699802111        0.0214442192
  C        -1.2397423735        1.2742906493       -0.0194755835
  H        -3.2092276258        1.8018200706        0.8696646612
  H        -3.2613137739        1.7619314087       -0.8236684000
  H        -3.2230594856        0.2729251446        0.0187342148
  H        -0.7873213474        0.8166795924        0.8595745244
  H        -0.8237896012        0.7495240019       -0.8750845515
  H        -0.8145658959        2.2746127321       -0.0725586750
       8
 i =       32, time =       16.000, E =       -14.9504448550
  C        -2.8020662152        1.2696239137        0.0225690156
  C        -1.2379572032        1.2743543584       -0.0202022001
  H        -3.2105786261        1.8030267527        0.8689907367
  H        -3.2636938626        1.7619318592       -0.8239712400
  H        -3.2222155264        0.2752668489        0.0185743960
  H        -0.7890768981        0.8203387026        0.8551772465
  H        -0.8236195987        0.7499439325       -0.8728884096
  H        -0.8147846190        2.2706215256       -0.0739825900
       8
 i =       33, time =       16.500, E =       -14.9502118897
  C        -2.8032906203        1.2693047831        0.0236414853
  C        -1.2363507807        1.2744370986       -0.0209207669
  H        -3.2118763255        1.8046025401        0.8700168519
  H        -3.2658388504        1.7626594168       -0.8259067652
  H        -3.2215210651        0.2759891844        0.0188308809
  H        -0.7908406697        0.8232659052        0.8519931164
  H        -0.8236181457        0.7494911152       -0.8718565187
  H        -0.8151173027        2.2680926406       -0.0754158132
       8
 i =       34, time =       17.000, E =       -14.9501959009
  C        -2.8043198551        1.2690476071        0.0246456171
  C        -1.2349591447        1.2745384285       -0.0216429738
  H        -3.2130837135        1.8064967826        0.8726704625
  H        -3.2676423591        1.7639895855       -0.8292512989
  H        -3.2210387528        0.2749702866        0.0195113596
  H        -0.7924434066        0.8252931735        0.8503347691
  H        -0.8237420492        0.7480963633       -0.8721015073
  H        -0.8154694807        2.2672700784       -0.0768864865
       8
 i =       35, time =       17.500, E =       -14.9503938044
  C        -2.8051623015        1.2688734128        0.0255678391
  C        -1.2338050479        1.2746577122       -0.0223796030
  H        -3.2141282056        1.8086012207        0.8767664059
  H        -3.2689733358        1.7657494717       -0.8336903473
  H        -3.2207784991        0.2722409668        0.0206170911
  H        -0.7937672256        0.8263212523        0.8503872781
  H        -0.8239845230        0.7457601797       -0.8736278836
  H        -0.8157882679        2.2682597664       -0.0784149520
       8
 i =       36, time =       18.000, E =       -14.9507393864
  C        -2.8058361340        1.2687971044        0.0263979442
  C        -1.2328966407        1.2747941483       -0.0231386890
  H        -3.2149101036        1.8107615842        0.8820274663
  H        -3.2696918746        1.7677359500       -0.8388506374
  H        -3.2206977543        0.2679830218        0.0221434603
  H        -0.7947571840        0.8263319541        0.8521837794
  H        -0.8243750965        0.7425534057       -0.8763316245
  H        -0.8160673764        2.2710163644       -0.0800119040
       8
 i =       37, time =       18.500, E =       -14.9511253620
  C        -2.8063662510        1.2688260672        0.0271295905
  C        -1.2322279123        1.2749467647       -0.0239241005
  H        -3.2153142168        1.8127942042        0.8881124005
  H        -3.2696653103        1.7697349998       -0.8443342196
  H        -3.2207086883        0.2625097454        0.0240802570
  H        -0.7954242895        0.8253909903        0.8555991523
  H        -0.8249744986        0.7386104921       -0.8800116616
  H        -0.8163456122        2.2753473359       -0.0816776827
       8
 i =       38, time =       19.000, E =       -14.9514400093
  C        -2.8067807566        1.2689598543        0.0277604000
  C        -1.2317807846        1.2751143996       -0.0247348482
  H        -3.2152226916        1.8145049175        0.8946472000
  H        -3.2687825591        1.7715399045       -0.8497506867
  H        -3.2206907370        0.2562324984        0.0264116964
  H        -0.7958394138        0.8236406319        0.8603633435
  H        -0.8258655866        0.7341165699       -0.8843911841
  H        -0.8166992717        2.2809336018       -0.0834028198
       8
 i =       39, time =       19.500, E =       -14.9516040627
  C        -2.8071074713        1.2691908006        0.0282917500
  C        -1.2315284287        1.2752956876       -0.0255652002
  H        -3.2145272895        1.8157076628        0.9012557288
  H        -3.2669654855        1.7729667886       -0.8547448766
  H        -3.2205060862        0.2496190866        0.0291163285
  H        -0.7961196277        0.8212836891        0.8660916094
  H        -0.8271419913        0.7292904036       -0.8891452117
  H        -0.8172300623        2.2873629152       -0.0851696887
       8
 i =       40, time =       20.000, E =       -14.9515941239
  C        -2.8073708542        1.2695052499        0.0287283730
  C        -1.2314391899        1.2754890610       -0.0264054658
  H        -3.2131398318        1.8162408414        0.9075869223
  H        -3.2641768528        1.7738667768       -0.8590188584
  H        -3.2200155444        0.2431505474        0.0321670269
  H        -0.7964099474        0.8185619609        0.8723257215
  H        -0.8288962658        0.7243656571       -0.8939304382
  H        -0.8180508297        2.2941702967       -0.0869549114
       8
 i =       41, time =       20.500, E =       -14.9514454497
  C        -2.8075895786        1.2698850584        0.0290778638
  C        -1.2314804965        1.2756927679       -0.0272431774
  H        -3.2110001386        1.8159803145        0.9133369204
  H        -3.2604249437        1.7741346461       -0.8623479450
  H        -3.2190927413        0.2372814563        0.0355311759
  H        -0.7968639094        0.8157328901        0.8785788655
  H        -0.8312090496        0.7195726971       -0.8984137424
  H        -0.8192713598        2.3008795062       -0.0887321057
       8
 i =       42, time =       21.000, E =       -14.9512355490
  C        -2.8077748434        1.2703091068        0.0293501601
  C        -1.2316222795        1.2759048969       -0.0280643676
  H        -3.2080813320        1.8148487033        0.9182657474
  H        -3.2557652947        1.7737142383       -0.8645912175
  H        -3.2176354668        0.2324070530        0.0391711598
  H        -0.7976258379        0.8130476757        0.8843779179
  H        -0.8341402098        0.7151224869       -0.9022969428
  H        -0.8209859602        2.3070409044       -0.0904745725
       8
 i =       43, time =       21.500, E =       -14.9510563081
  C        -2.8079294158        1.2707546834        0.0295570172
  C        -1.2318396382        1.2761234016       -0.0288547377
  H        -3.2043926576        1.8128211383        0.9222086113
  H        -3.2502999286        1.7726009479       -0.8656970099
  H        -3.2155737712        0.2288383759        0.0430451240
  H        -0.7988164885        0.8107328882        0.8892990686
  H        -0.8377223634        0.7111934828       -0.9053364402
  H        -0.8232637623        2.3122627574       -0.0921576903
       8
 i =       44, time =       22.000, E =       -14.9509845082
  C        -2.8080473352        1.2711987028        0.0297114720
  C        -1.2321146815        1.2763461213       -0.0296006070
  H        -3.1999801300        1.8099278025        0.9250823241
  H        -3.2441744143        1.7708415136       -0.8657037188
  H        -3.2128750092        0.2267852242        0.0471079746
  H        -0.8005226671        0.8089764394        0.8929950449
  H        -0.8419568442        0.7079218149       -0.9073574046
  H        -0.8261419962        2.3162349999       -0.0937608490
       8
 i =       45, time =       22.500, E =       -14.9510591888
  C        -2.8081141998        1.2716188096        0.0298272638
  C        -1.2324376093        1.2765707957       -0.0302896359
  H        -3.1949252837        1.8062536365        0.9268873144
  H        -3.2375728677        1.7685311575       -0.8647358751
  H        -3.2095462941        0.2263460180        0.0513125230
  H        -0.8027905545        0.8079177956        0.8952141062
  H        -0.8468118347        0.7053946604       -0.9082628214
  H        -0.8296220117        2.3187456285       -0.0952689498
       8
 i =       46, time =       23.000, E =       -14.9512711846
  C        -2.8081079755        1.2719944473        0.0299181792
  C        -1.2328071539        1.2767950754       -0.0309113751
  H        -3.1893421912        1.8019353528        0.9277053684
  H        -3.2307108465        1.7658079024       -0.8629951207
  H        -3.2056348291        0.2275035242        0.0556106903
  H        -0.8056221206        0.8076418301        0.8958119130
  H        -0.8522224475        0.7036466019       -0.9080378242
  H        -0.8336676493        2.3196905414       -0.0966735287
       8
 i =       47, time =       23.500, E =       -14.9515665198
  C        -2.8080002995        1.2723079653        0.0299972814
  C        -1.2332304983        1.2770165310       -0.0314577276
  H        -3.1833727822        1.7971557696        0.9276929076
  H        -3.2238259766        1.7628437943       -0.8607455124
  H        -3.2012264092        0.2301259391        0.0599548498
  H        -0.8089739529        0.8081756276        0.8947575885
  H        -0.8580925180        0.7026587917       -0.9067497126
  H        -0.8382056090        2.3190776542       -0.0979734384
       8
 i =       48, time =       24.000, E =       -14.9518622352
  C        -2.8077582629        1.2725457875        0.0300760403
  C        -1.2337227473        1.2772326646       -0.0319233830
  H        -3.1771804274        1.7921352216        0.9270693803
  H        -3.2171663066        1.7598328439       -0.8582927315
  H        -3.1964421692        0.2339733963        0.0642991749
  H        -0.8127580694        0.8094878013        0.8921347808
  H        -0.8642980232        0.7023609463       -0.9045436785
  H        -0.8431275840        2.3170256670       -0.0991751703
       8
 i =       49, time =       24.500, E =       -14.9520705710
  C        -2.8073466550        1.2726995793        0.0301634265
  C        -1.2343059724        1.2774409264       -0.0323062539
  H        -3.1709417668        1.7871198982        0.9261003494
  H        -3.2109766751        1.7569758662       -0.8559574693
  H        -3.1914334011        0.2387106591        0.0686009203
  H        -0.8168445929        0.8114902490        0.8881378645
  H        -0.8706921421        0.7026363636       -0.9016340168
  H        -0.8482941498        2.3137573126       -0.1002928099
       8
 i =       50, time =       25.000, E =       -14.9521254827
  C        -2.8067306082        1.2727672530        0.0302651088
  C        -1.2350078065        1.2776387453       -0.0326078884
  H        -3.1648369342        1.7823671560        0.9250752474
  H        -3.2054838429        1.7544630301       -0.8540444707
  H        -3.1863741818        0.2439270176        0.0728214329
  H        -0.8210665026        0.8140426775        0.8830626093