       8
 i =        0, time =        0.000, E =       -14.9507520345
  C        -0.0244583961        0.0000123864        0.0000391681
  C         0.0243353333        0.0000779068       -0.0001032014
  H         0.0003572838       -0.0062611368       -0.0108382135
  H         0.0003843107       -0.0062619574        0.0108400061
  H         0.0003796339        0.0125149915       -0.0000014679
  H        -0.0003718767        0.0062300911       -0.0107931756
  H        -0.0003525349        0.0062737887        0.0108612398
  H        -0.0003578596       -0.0125395938       -0.0000043499
       8
 i =        1, time =        0.500, E =       -14.9505665125
  C        -0.0228052016       -0.0024255618        0.0018851091
  C         0.0250919063       -0.0002168919        0.0009648770
  H        -0.0006808950       -0.0050981121       -0.0101308272
  H        -0.0012421338       -0.0050851753        0.0090517977
  H         0.0002522287        0.0127249387       -0.0005306967
  H        -0.0007363144        0.0072354488       -0.0123413484
  H         0.0001811177        0.0065681755        0.0110852432
  H        -0.0001423842       -0.0136573686        0.0000190688
       8
 i =        2, time =        1.000, E =       -14.9505423979
  C        -0.0202488176       -0.0047563751        0.0037073194
  C         0.0247931808       -0.0004967147        0.0019275620
  H        -0.0019141545       -0.0035530474       -0.0087258980
  H        -0.0030554399       -0.0035174829        0.0065808518
  H        -0.0001223908        0.0120549369       -0.0010509226
  H        -0.0008100876        0.0077341560       -0.0130228915
  H         0.0009472963        0.0064193375        0.0105494187
  H         0.0003294211       -0.0138403270        0.0000410366
       8
 i =        3, time =        1.500, E =       -14.9506389303
  C        -0.0169421188       -0.0068442639        0.0054117362
  C         0.0234666523       -0.0007555622        0.0027298025
  H        -0.0032867403       -0.0016952698       -0.0067177314
  H        -0.0049674634       -0.0016589847        0.0035976967
  H        -0.0007307945        0.0105352821       -0.0015472234
  H        -0.0005827047        0.0077084650       -0.0128065656
  H         0.0019172684        0.0058391570        0.0092857726
  H         0.0010438515       -0.0130851731        0.0000560216
       8
 i =        4, time =        2.000, E =       -14.9507825196
  C        -0.0130912189       -0.0085380664        0.0068906611
  C         0.0211843924       -0.0009894745        0.0033148211
  H        -0.0047284603        0.0003807101       -0.0042488604
  H        -0.0068691437        0.0003545829        0.0003357811
  H        -0.0015456189        0.0082419866       -0.0020055849
  H        -0.0000579404        0.0071628650       -0.0116996919
  H         0.0030489510        0.0048633118        0.0073661677
  H         0.0019740578       -0.0114326161        0.0000588452
       8
 i =        5, time =        2.500, E =       -14.9508908532
  C        -0.0089516623       -0.0096799830        0.0080317757
  C         0.0180659377       -0.0011958373        0.0036215370
  H        -0.0061553275        0.0025548804       -0.0015111744
  H        -0.0086341914        0.0023560831       -0.0029154516
  H        -0.0025245330        0.0053011565       -0.0024137952
  H         0.0007454555        0.0061249317       -0.0097495605
  H         0.0042861280        0.0035539796        0.0049061745
  H         0.0030791953       -0.0089720993        0.0000450113
       8
 i =        6, time =        3.000, E =       -14.9508998038
  C        -0.0048206776       -0.0101269066        0.0087356059
  C         0.0142807967       -0.0013725226        0.0035870742
  H        -0.0074723027        0.0046845067        0.0012567124
  H        -0.0101275299        0.0041575717       -0.0058301434
  H        -0.0036071561        0.0018978891       -0.0027625206
  H         0.0017916109        0.0046490939       -0.0070503797
  H         0.0055583804        0.0020023226        0.0020687601
  H         0.0043031012       -0.0058487590        0.0000112526
       8
 i =        7, time =        3.500, E =       -14.9507853547
  C        -0.0010170042       -0.0097834375        0.0089398254
  C         0.0100549997       -0.0015172597        0.0031570386
  H        -0.0085795061        0.0066131207        0.0037873637
  H        -0.0112205322        0.0055731720       -0.0080866139
  H        -0.0047145780       -0.0017230146       -0.0030462921
  H         0.0030231142        0.0028224999       -0.0037538925
  H         0.0067821050        0.0003286934       -0.0009361166
  H         0.0055728704       -0.0022703891       -0.0000437046
       8
 i =        8, time =        4.000, E =       -14.9505737742
  C         0.0021501196       -0.0086374723        0.0086421900
  C         0.0056699776       -0.0016269158        0.0023020398
  H        -0.0093822612        0.0081856964        0.0058130037
  H        -0.0118094659        0.0064478397       -0.0094185588
  H        -0.0057510048       -0.0052650377       -0.0032639450
  H         0.0043568787        0.0007698652       -0.0000776506
  H         0.0078641515       -0.0013225778       -0.0038607264
  H         0.0067989479        0.0014923812       -0.0001182314
       8
 i =        9, time =        4.500, E =       -14.9503359626
  C         0.0044142411       -0.0067862344        0.0079126406
  C         0.0014536288       -0.0016975357        0.0010377634
  H        -0.0098027436        0.0092679661        0.0071031401
  H        -0.0118328694        0.0066852700       -0.0096646083
  H        -0.0066093459       -0.0084013518       -0.0034186277
  H         0.0056829577       -0.0013466998        0.0036946241
  H         0.0087092996       -0.0027953630       -0.0064400257
  H         0.0078789353        0.0051179544       -0.0002069772
       8
 i =       10, time =        5.000, E =       -14.9501666381
  C         0.0055878007       -0.0044384463        0.0068863758
  C        -0.0022428678       -0.0017253894       -0.0005580754
  H        -0.0097917686        0.0097663452        0.0075031176
  H        -0.0112829652        0.0062667861       -0.0088014750
  H        -0.0071823071       -0.0108114433       -0.0035164533
  H         0.0068681487       -0.0033353182        0.0072261085
  H         0.0092305555       -0.0039399733       -0.0084221246
  H         0.0087054104        0.0082616438       -0.0003004579
       8
 i =       11, time =        5.500, E =       -14.9501538122
  C         0.0055890011       -0.0018847939        0.0057364075
  C        -0.0050824438       -0.0017087188       -0.0023415123
  H        -0.0093374324        0.0096436797        0.0069638032
  H        -0.0102071652        0.0052544223       -0.0069480943
  H        -0.0073778231       -0.0122293784       -0.0035644709
  H         0.0077675171       -0.0049935105        0.0101600903
  H         0.0093610186       -0.0046353606       -0.0096049779
  H         0.0091783039        0.0105978541       -0.0003856627
       8
 i =       12, time =        6.000, E =       -14.9503477908
  C         0.0044541199        0.0005576283        0.0046348064
  C        -0.0067896550       -0.0016494312       -0.0041177893
  H        -0.0084677873        0.0089254236        0.0055514109
  H        -0.0086987566        0.0037768028       -0.0043391975
  H        -0.0071356439       -0.0124909689       -0.0035682141
  H         0.0082439689       -0.0061375876        0.0121707286
  H         0.0090647085       -0.0048095658       -0.0098700794
  H         0.0092199496        0.0118718752       -0.0004477670
       8
 i =       13, time =        6.500, E =       -14.9507404203
  C         0.0023318270        0.0026091604        0.0037167202
  C        -0.0071977465       -0.0015532888       -0.0056763684
  H        -0.0072467079        0.0076944875        0.0034346605
  H        -0.0068809993        0.0020033958       -0.0012783861
  H        -0.0064403544       -0.0115680554       -0.0035298249
  H         0.0081926418       -0.0066358536        0.0130214190
  H         0.0083434461       -0.0044525488       -0.0092033773
  H         0.0087893516        0.0119463176       -0.0004726940
       8
 i =       14, time =        7.000, E =       -14.9512631710
  C        -0.0005381612        0.0040778910        0.0030593977
  C        -0.0062824474       -0.0014282393       -0.0068356659
  H        -0.0057642263        0.0060766082        0.0008537486
  H        -0.0048885361        0.0001157747        0.0019135351
  H        -0.0053263457       -0.0095740853       -0.0034474148
  H         0.0075634856       -0.0064360622        0.0126137332
  H         0.0072374167       -0.0036172894       -0.0076967799
  H         0.0078913063        0.0108284220       -0.0004499960
       8
 i =       15, time =        7.500, E =       -14.9518063727
  C        -0.0038574227        0.0048813741        0.0026804083
  C        -0.0041706938       -0.0012814542       -0.0074812304
  H        -0.0041241041        0.0042205176       -0.0019194298
  H        -0.0028517998       -0.0017164630        0.0049410367
  H        -0.0038730978       -0.0067432452       -0.0033159318
  H         0.0063742362       -0.0055769910        0.0110093836
  H         0.0058191788       -0.0024090077       -0.0055299320
  H         0.0065772527        0.0086670570       -0.0003750987
       8
 i =       16, time =        8.000, E =       -14.9522535181
  C        -0.0073048429        0.0050378776        0.0025507904
  C        -0.0011206540       -0.0011169819       -0.0075831502
  H        -0.0024313380        0.0022783378       -0.0046187179
  H        -0.0008862029       -0.0033509245        0.0075600064
  H        -0.0021919321       -0.0033862210       -0.0031291557
  H         0.0047087979       -0.0041795212        0.0084165507
  H         0.0041834070       -0.0009660234       -0.0029382851
  H         0.0049376908        0.0057238332       -0.0002502001
       8
 i =       17, time =        8.500, E =       -14.9525178868
  C        -0.0105690508        0.0046371123        0.0026146547
  C         0.0025209033       -0.0009350973       -0.0071887314
  H        -0.0007832335        0.0003903683       -0.0070105765
  H         0.0009125096       -0.0046788475        0.0095879431
  H        -0.0004091150        0.0001601617       -0.0028819148
  H         0.0027017750       -0.0024206079        0.0051456420
  H         0.0024348312        0.0005617224       -0.0001770989
  H         0.0030882368        0.0023241022       -0.0000836857
       8
 i =       18, time =        9.000, E =       -14.9525679011
  C        -0.0133732177        0.0038045815        0.0028076264
  C         0.0063710552       -0.0007337932       -0.0063970355
  H         0.0007365976       -0.0013242109       -0.0089090928
  H         0.0024692365       -0.0056244177        0.0109016163
  H         0.0013504496        0.0035768229       -0.0025717409
  H         0.0005146730       -0.0004996857        0.0015514114
  H         0.0006770397        0.0020311706        0.0025098276
  H         0.0011537753       -0.0011928205        0.0001116220
       8
 i =       19, time =        9.500, E =       -14.9524328269
  C        -0.0154896078        0.0026718062        0.0030694058
  C         0.0100575852       -0.0005110384       -0.0053280476
  H         0.0020608122       -0.0027713371       -0.0101807792
  H         0.0037283078       -0.0061413925        0.0114303586
  H         0.0029756502        0.0065930221       -0.0021998297
  H        -0.0016886069        0.0013921047       -0.0020218024
  H        -0.0009955663        0.0033188759        0.0049115238
  H        -0.0007454093       -0.0045153625        0.0003206170
       8
 i =       20, time =       10.000, E =       -14.9521886744
  C        -0.0167455556        0.0013586214        0.0033490384
  C         0.0132544295       -0.0002665991       -0.0040976041
  H         0.0031385043       -0.0038818296       -0.0107411973
  H         0.0046517225       -0.0062084520        0.0111473536
  H         0.0043755723        0.0089991447       -0.0017710159
  H        -0.0037603258        0.0030929690       -0.0052779216
  H        -0.0025029536        0.0043275923        0.0068609556
  H        -0.0025038665       -0.0073854223        0.0005279676
       8
 i =       21, time =       10.500, E =       -14.9519310157
  C        -0.0170252158       -0.0000326821        0.0036048906
  C         0.0156996693       -0.0000031821       -0.0028030363
  H         0.0039344669       -0.0046098802       -0.0105500465
  H         0.0052186184       -0.0058261130        0.0100640515
  H         0.0054816476        0.0106478346       -0.0012932663
  H        -0.0055793154        0.0044796330       -0.0079864886
  H        -0.0037814739        0.0049874394        0.0082371124
  H        -0.0040355917       -0.0096074369        0.0007193861
       8
 i =       22, time =       11.000, E =       -14.9517445547
  C        -0.0162691550       -0.0014136740        0.0038007373
  C         0.0172004063        0.0002735613       -0.0015197207
  H         0.0044283858       -0.0049307651       -0.0096066147
  H         0.0054256684       -0.0050159373        0.0082287809
  H         0.0062468675        0.0114481138       -0.0007771098
  H        -0.0070538360        0.0054673155       -0.0099842392
  H        -0.0047841041        0.0052541721        0.0089626670
  H        -0.0052753310       -0.0110472419        0.0008824767
       8
 i =       23, time =       11.500, E =       -14.9516785028
  C        -0.0144756604       -0.0027010871        0.0039006817
  C         0.0176300883        0.0005555285       -0.0003050777
  H         0.0046151966       -0.0048410607       -0.0079482882
  H         0.0052899617       -0.0038221648        0.0057295257
  H         0.0066438648        0.0113579809       -0.0002350134
  H        -0.0081199082        0.0060047815       -0.0111673111
  H        -0.0054798691        0.0051069148        0.0089993621
  H        -0.0061775215       -0.0116251800        0.0010069667
       8
 i =       24, time =       12.000, E =       -14.9517339249
  C        -0.0117044738       -0.0038072578        0.0038647385
  C         0.0169235946        0.0008328781        0.0007939009
  H         0.0045064019       -0.0043595104       -0.0056514405
  H         0.0048518027       -0.0023146041        0.0026988546
  H         0.0066633230        0.0103793424        0.0003191111
  H        -0.0087376513        0.0060678449       -0.0114805326
  H        -0.0058536526        0.0045464436        0.0083452563
  H        -0.0067146520       -0.0113091433        0.0010847523
       8
 i =       25, time =       12.500, E =       -14.9518655265
  C        -0.0080821656       -0.0046337688        0.0036471808
  C         0.0150740862        0.0010948142        0.0017329304
  H         0.0041321993       -0.0035300835       -0.0028347583
  H         0.0041780714       -0.0005912965       -0.0006815511
  H         0.0063139343        0.0085573595        0.0008702130
  H        -0.0088881828        0.0056545161       -0.0109093797
  H        -0.0059067412        0.0035950846        0.0070341682
  H        -0.0068767903       -0.0101102577        0.0011099342
       8
 i =       26, time =       13.000, E =       -14.9519967695
  C        -0.0038068127       -0.0050719646        0.0031992609
  C         0.0121342988        0.0013304300        0.0024650973
  H         0.0035436042       -0.0024250941        0.0003376510
  H         0.0033627110        0.0012211602       -0.0041809341
  H         0.0056240699        0.0059843518        0.0014026521
  H        -0.0085725544        0.0047830393       -0.0094771989
  H        -0.0056585108        0.0022982319        0.0051380606
  H        -0.0066719172       -0.0080833026        0.0010790747
       8
 i =       27, time =       13.500, E =       -14.9520443429
  C         0.0008530057       -0.0050133589        0.0024773652
  C         0.0082217925        0.0015298246        0.0029398004
  H         0.0028132156       -0.0011468116        0.0036566573
  H         0.0025227067        0.0029727972       -0.0075292061
  H         0.0046444218        0.0028065794        0.0019009172
  H        -0.0078132155        0.0034930580       -0.0072480394
  H        -0.0051481300        0.0007265019        0.0027704306
  H        -0.0061280805       -0.0053314389        0.0009917243
       8
 i =       28, time =       14.000, E =       -14.9519454522
  C         0.0055696899       -0.0043709010        0.0014559355
  C         0.0035260589        0.0016854018        0.0031074513
  H         0.0020328778        0.0001751525        0.0068763679
  H         0.0017870759        0.0045024373       -0.0104381666
  H         0.0034506017       -0.0007693280        0.0023506484
  H        -0.0066578142        0.0018496289       -0.0043347741
  H        -0.0044360649       -0.0010225428        0.0000886997
  H        -0.0052961762       -0.0020123747        0.0008510842
       8
 i =       29, time =       14.500, E =       -14.9516803607
  C         0.0099824196       -0.0031079655        0.0001419330
  C        -0.0016874594        0.0017932854        0.0029303594
  H         0.0013066336        0.0013926455        0.0097318856
  H         0.0012796016        0.0056566576       -0.0126358552
  H         0.0021437171       -0.0044757447        0.0027398518
  H        -0.0051839281       -0.0000519307       -0.0009091469
  H        -0.0036030550       -0.0028253983       -0.0027075387
  H        -0.0042520178        0.0016562720        0.0006649554
       8
 i =       30, time =       15.000, E =       -14.9512830259
  C         0.0137365946       -0.0012672265       -0.0014143707
  C        -0.0070799459        0.0018541764        0.0023987271
  H         0.0007385766        0.0023552432        0.0119681391
  H         0.0010971874        0.0063130540       -0.0139067022
  H         0.0008461362       -0.0079948984        0.0030601505
  H        -0.0035025601       -0.0020825749        0.0027908716
  H        -0.0027459077       -0.0045380850       -0.0053856848
  H        -0.0030958436        0.0053983532        0.0004462873
       8
 i =       31, time =       15.500, E =       -14.9508353299
  C         0.0165326315        0.0010108633       -0.0030640820
  C        -0.0122571027        0.0018763263        0.0016018262
  H         0.0004173547        0.0029320482        0.0133746235
  H         0.0012907936        0.0064015601       -0.0141286825
  H        -0.0003101465       -0.0109843126        0.0032534327
  H        -0.0017563959       -0.0040815771        0.0064640854
  H        -0.0019682163       -0.0060082204       -0.0077002674
  H        -0.0019479568        0.0088912739        0.0001591766
       8
 i =       32, time =       16.000, E =       -14.9504448550
  C         0.0181675461        0.0034996582       -0.0047439728
  C        -0.0168100483        0.0018643357        0.0005671083
  H         0.0004004644        0.0030337138        0.0138190898
  H         0.0018546549        0.0059175466       -0.0132950185
  H        -0.0011958671       -0.0131214164        0.0033841302
  H        -0.0001102059       -0.0058663506        0.0097646996
  H        -0.0013675412       -0.0070924696       -0.0094210479
  H        -0.0009328588        0.0118026075       -0.0001108760
       8
 i =       33, time =       16.500, E =       -14.9502118897
  C         0.0185722619        0.0059157006       -0.0063165145
  C        -0.0203639128        0.0018267297       -0.0005611545
  H         0.0007034354        0.0026299838        0.0132699663
  H         0.0027269119        0.0049219071       -0.0115139647
  H        -0.0017096473       -0.0141530949        0.0034568177
  H         0.0012676711       -0.0072527668        0.0123398546
  H        -0.0010201509       -0.0076767406       -0.0103665255
  H        -0.0001667372        0.0138250687       -0.0003396192
       8
 i =       34, time =       17.000, E =       -14.9501959009
  C         0.0178206413        0.0079738651       -0.0076572838
  C        -0.0226389864        0.0017699020       -0.0016041791
  H         0.0012968160        0.0017558377        0.0118012035
  H         0.0038024182        0.0035288498       -0.0089871395
  H        -0.0017956078       -0.0139438841        0.0034769952
  H         0.0022315681       -0.0080830506        0.0138834624
  H        -0.0009678947       -0.0076947611       -0.0104338823
  H         0.0002633232        0.0147285789       -0.0005054493
       8
 i =       35, time =       17.500, E =       -14.9503938044
  C         0.0161148119        0.0094433634       -0.0086744151
  C        -0.0235016723        0.0016967012       -0.0023839978
  H         0.0021124074        0.0005045843        0.0095778720
  H         0.0049526618        0.0018853498       -0.0059737308
  H        -0.0014547058       -0.0125039337        0.0034490937
  H         0.0026857998       -0.0082551296        0.0141936426
  H        -0.0012109174       -0.0071396811       -0.0096171386
  H         0.0003154071        0.0144021749       -0.0005932652
       8
 i =       36, time =       18.000, E =       -14.9507393864
  C         0.0137494194        0.0101870332       -0.0093175828
  C        -0.0229900276        0.0016068131       -0.0027631117
  H         0.0030561411       -0.0009893150        0.0068268109
  H         0.0060467618        0.0001484915       -0.0027508546
  H        -0.0007441817       -0.0099890741        0.0033754483
  H         0.0026042810       -0.0077441752        0.0132157549
  H        -0.0017084786       -0.0060650859       -0.0080077266
  H         0.0000006119        0.0128759628       -0.0005972256
       8
 i =       37, time =       18.500, E =       -14.9511253620
  C         0.0110644751        0.0101727826       -0.0095761470
  C        -0.0213039565        0.0014984734       -0.0026736543
  H         0.0040240023       -0.0025724992        0.0038018329
  H         0.0069680186       -0.0015335889        0.0004191349
  H         0.0002348071       -0.0066692718        0.0032563566
  H         0.0020350971       -0.0066084188        0.0110554147
  H        -0.0023875409       -0.0045752887       -0.0057774602
  H        -0.0006202208        0.0103155547       -0.0005216305
       8
 i =       38, time =       19.000, E =       -14.9514400093
  C         0.0083983062        0.0094585908       -0.0094699053
  C        -0.0187632172        0.0013703558       -0.0021255471
  H         0.0049163281       -0.0040939581        0.0007518670
  H         0.0076238009       -0.0030342904        0.0033105021
  H         0.0013569764       -0.0028815157        0.0030911347
  H         0.0010882198       -0.0049769141        0.0079561262
  H        -0.0031563217       -0.0028081635       -0.0031494149
  H        -0.0014496691        0.0069903430       -0.0003796959
       8
 i =       39, time =       19.500, E =       -14.9516040627
  C         0.0060501586        0.0081618503       -0.0090374809
  C        -0.0157472322        0.0012225494       -0.0011931264
  H         0.0056481302       -0.0054206548       -0.0021021043
  H         0.0079489617       -0.0042543706        0.0057439520
  H         0.0024936185        0.0010240287        0.0028795897
  H        -0.0000888042       -0.0030237787        0.0042506841
  H        -0.0039187304       -0.0009152856       -0.0003652562
  H        -0.0023722199        0.0032272676       -0.0001907511
       8
 i =       40, time =       20.000, E =       -14.9515941239
  C         0.0042564622        0.0064266250       -0.0083264335
  C        -0.0126341763        0.0010565428        0.0000109725
  H         0.0061544546       -0.0064465328       -0.0045800743
  H         0.0079050178       -0.0051228779        0.0075884754
  H         0.0035293172        0.0047253676        0.0026229629
  H        -0.0013385757       -0.0009378890        0.0003022513
  H        -0.0045865919        0.0009560549        0.0023439095
  H        -0.0032726522       -0.0006379962        0.0000231344
       8
 i =       41, time =       20.500, E =       -14.9514454497
  C         0.0031826374        0.0043978619       -0.0073866787
  C        -0.0097552708        0.0008745013        0.0013644742
  H         0.0063913958       -0.0070951178       -0.0065458191
  H         0.0074765481       -0.0055948458        0.0087571335
  H         0.0043715187        0.0079550681        0.0023248505
  H        -0.0025170504        0.0011033520       -0.0035465348
  H        -0.0050874327        0.0026751948        0.0047769234
  H        -0.0040498208       -0.0042983700        0.0002403002
       8
 i =       42, time =       21.000, E =       -14.9512355490
  C         0.0029236326        0.0022083618       -0.0062683893
  C        -0.0073692343        0.0006786595        0.0027550218
  H         0.0063349597       -0.0073183677       -0.0079061133
  H         0.0066682847       -0.0056487725        0.0092033145
  H         0.0049536319        0.0105096695        0.0019910930
  H        -0.0035071718        0.0029504235       -0.0070059139
  H        -0.0053678459        0.0041353187        0.0067733654
  H        -0.0046243312       -0.0074989198        0.0004413660
       8
 i =       43, time =       21.500, E =       -14.9510563081
  C         0.0035104266       -0.0000243006       -0.0050228371
  C        -0.0056557082        0.0004708804        0.0040906675
  H         0.0059787856       -0.0070940815       -0.0086067289
  H         0.0055027483       -0.0052849256        0.0089180240
  H         0.0052336846        0.0122482805        0.0016296144
  H        -0.0042238118        0.0044885575       -0.0098531133
  H        -0.0053941621        0.0052556840        0.0082163533
  H        -0.0049407084       -0.0100447983        0.0006105481
       8
 i =       44, time =       22.000, E =       -14.9509845082
  C         0.0049175590       -0.0021930921       -0.0037055126
  C        -0.0047214427        0.0002526484        0.0053006909
  H         0.0053321109       -0.0064232011       -0.0086289618
  H         0.0040195952       -0.0045252438        0.0079307673
  H         0.0051907335        0.0130855056        0.0012497338
  H        -0.0046117615        0.0056369906       -0.0119312894
  H        -0.0051503938        0.0059810806        0.0090302990
  H        -0.0049657399       -0.0118002023        0.0007354678
       8
 i =       45, time =       22.500, E =       -14.9510591888
  C         0.0070687541       -0.0041937455       -0.0023796695
  C        -0.0046116862        0.0000251244        0.0063308223
  H         0.0044185643       -0.0053288250       -0.0079889143
  H         0.0022760758       -0.0034148753        0.0063128477
  H         0.0048212354        0.0129836002        0.0008614423
  H        -0.0046409114        0.0063443432       -0.0131411718
  H        -0.0046366185        0.0062804117        0.0091778361
  H        -0.0046854326       -0.0126822929        0.0008067430
       8
 i =       46, time =       23.000, E =       -14.9512711846
  C         0.0098397926       -0.0059180209       -0.0011199252
  C        -0.0053212678       -0.0002106367        0.0071352079
  H         0.0032758861       -0.0038561782       -0.0067393447
  H         0.0003482514       -0.0020244655        0.0041822056
  H         0.0041367178        0.0119487451        0.0004759483
  H        -0.0043008802        0.0065832893       -0.0134308348
  H        -0.0038670254        0.0061455224        0.0086569018
  H        -0.0041021895       -0.0126549614        0.0008185709
       8
 i =       47, time =       23.500, E =       -14.9515665198
  C         0.0130598282       -0.0072517711       -0.0000109173
  C        -0.0068016506       -0.0004534533        0.0076708964
  H         0.0019560475       -0.0020744386       -0.0049731558
  H        -0.0016692301       -0.0004515708        0.0017068253
  H         0.0031630798        0.0100316517        0.0001044779
  H        -0.0035975022        0.0063470994       -0.0127893491
  H        -0.0028691245        0.0055914833        0.0075006347
  H        -0.0032328479       -0.0117259485        0.0007681103
       8
 i =       48, time =       24.000, E =       -14.9518622352
  C         0.0165131912       -0.0080809015        0.0008591195
  C        -0.0089629165       -0.0007016380        0.0078950247
  H         0.0005252211       -0.0000777838       -0.0028266873
  H        -0.0036656481        0.0011808996       -0.0008976073
  H         0.0019418739        0.0073335294       -0.0002424203
  H        -0.0025516959        0.0056489700       -0.0112454973
  H        -0.0016836545        0.0046581399        0.0057790610
  H        -0.0021084476       -0.0099481014        0.0006555570
       8
 i =       49, time =       24.500, E =       -14.9520705710
  C         0.0199449318       -0.0083068994        0.0014116845
  C        -0.0116711272       -0.0009524349        0.0077671621
  H        -0.0009375513        0.0020151050       -0.0004798673
  H        -0.0055203611        0.0027313061       -0.0033797607
  H         0.0005322826        0.0040141155       -0.0005565775
  H        -0.0012010998        0.0045245498       -0.0088729343
  H        -0.0003643036        0.0034122689        0.0036015750
  H        -0.0007753940       -0.0074245305        0.0004842545
       8
 i =       50, time =       25.000, E =       -14.9521254827
  C         0.0230726468       -0.0078709959        0.0015959542
  C        -0.0147432917       -0.0012014375        0.0072562134
  H        -0.0023442030        0.0040653317        0.0018510295
  H        -0.0071137269        0.0040524019       -0.0054762355
  H        -0.0009869043        0.0002985593       -0.0008329276
  H         0.0003964332        0.0030368783       -0.0057995341