#     Step Nr.          Time[fs]        Kin.[a.u.]          Temp[K]            Pot.[a.u.]        Cons Qty[a.u.]        UsedTime[s]
         0            0.000000         0.001662578        50.000000000       -14.950752035       -14.949010286         0.000000000
         1            0.500000         0.001470691        44.229219389       -14.950566513       -14.949009873         8.281627161
         2            1.000000         0.001437671        43.236205037       -14.950542398       -14.949012507         1.759147834
         3            1.500000         0.001523090        45.805072372       -14.950638930       -14.949017267         1.631052209
         4            2.000000         0.001654518        49.757616585       -14.950782520       -14.949022625         1.310481623
         5            2.500000         0.001751306        52.668378932       -14.950890853       -14.949026873         1.292549590
         6            3.000000         0.001750980        52.658572220       -14.950899804       -14.949028619         1.372021219
         7            3.500000         0.001630682        49.040775948       -14.950785355       -14.949027173         1.389763467
         8            4.000000         0.001416851        42.610046805       -14.950573774       -14.949022850         1.278651085
         9            4.500000         0.001179375        35.468262086       -14.950335963       -14.949016943         1.329891952
        10            5.000000         0.001010965        30.403527833       -14.950166638       -14.949011386         1.259926328
        11            5.500000         0.000997174        29.988795533       -14.950153812       -14.949008165         1.400387293
        12            6.000000         0.001186209        35.673782588       -14.950347791       -14.949008638         1.374053650
        13            6.500000         0.001568940        47.183952245       -14.950740420       -14.949012961         1.260054726
        14            7.000000         0.002077350        62.473761716       -14.951263171       -14.949019926         1.313291864
        15            7.500000         0.002603540        78.298279926       -14.951806373       -14.949027336         1.262594063
        16            8.000000         0.003033286        91.222361498       -14.952253518       -14.949032841         1.414116895
        17            8.500000         0.003281819        98.696676596       -14.952517887       -14.949034824         1.351301048
        18            9.000000         0.003318598        99.802771521       -14.952567901       -14.949032933         1.305399742
        19            9.500000         0.003172852        95.419626848       -14.952432827       -14.949028075         1.319650626
        20           10.000000         0.002919645        87.804737574       -14.952188674       -14.949021988         1.289349478
        21           10.500000         0.002653081        79.788151362       -14.951931016       -14.949016603         1.426975759
        22           11.000000         0.002456310        73.870504335       -14.951744555       -14.949013486         1.318601944
        23           11.500000         0.002377347        71.495799088       -14.951678503       -14.949013440         1.248080503
        24           12.000000         0.002416770        72.681403656       -14.951733925       -14.949016361         1.314401368
        25           12.500000         0.002529682        76.077087393       -14.951865527       -14.949021314         1.301901061
        26           13.000000         0.002640839        79.420005891       -14.951996769       -14.949026754         1.427660370
        27           13.500000         0.002668849        80.262352921       -14.952044343       -14.949030955         1.307707530
        28           14.000000         0.002553017        76.778848367       -14.951945452       -14.949032465         1.297770388
        29           14.500000         0.002275289        68.426539964       -14.951680361       -14.949030570         1.314277109
        30           15.000000         0.001870305        56.247124760       -14.951283026       -14.949025586         1.308852499
        31           15.500000         0.001419367        42.685733631       -14.950835330       -14.949018753         1.407481207
        32           16.000000         0.001028069        30.917909818       -14.950444855       -14.949012110         1.283090197
        33           16.500000         0.000793771        23.871693308       -14.950211890       -14.949007948         1.290756404
        34           17.000000         0.000773275        23.255309036       -14.950195901       -14.949007807         1.278576018
        35           17.500000         0.000962089        28.933653389       -14.950393804       -14.949011840         1.388514908
        36           18.000000         0.001294340        38.925683051       -14.950739386       -14.949018686         1.415891444
        37           18.500000         0.001664571        50.059920912       -14.951125362       -14.949025988         1.298022464
        38           19.000000         0.001963523        59.050536952       -14.951440009       -14.949031330         1.288436249
        39           19.500000         0.002114063        63.577849743       -14.951604063       -14.949033138         1.281025987
        40           20.000000         0.002093922        62.972127184       -14.951594124       -14.949031154         1.370795896
        41           20.500000         0.001938282        58.291468353       -14.951445450       -14.949026343         1.396549379
        42           21.000000         0.001723578        51.834493016       -14.951235549       -14.949020396         1.275210841
        43           21.500000         0.001540036        46.314696298       -14.951056308       -14.949015105         1.310566729
        44           22.000000         0.001462696        43.988787096       -14.950984508       -14.949011842         1.258512378
        45           22.500000         0.001529255        45.990479767       -14.951059189       -14.949011228         1.407882979
        46           23.000000         0.001729948        52.026055713       -14.951271185       -14.949013043         1.396040615
        47           23.500000         0.002011109        60.481653018       -14.951566520       -14.949016313         1.266758874
        48           24.000000         0.002290960        68.897822072       -14.951862235       -14.949019556         1.297603169
        49           24.500000         0.002483530        74.689138475       -14.952070571       -14.949021148         1.273617772
        50           25.000000         0.002524722        75.927934041       -14.952125483       -14.949019774         1.414171247
        51           25.500000         0.002393478        71.980935594       -14.952004353       -14.949014834         1.350778947
        52           26.000000         0.002121482        63.800969714       -14.951738275       -14.949006755         1.289932387
        53           26.500000         0.001787085        53.744404745       -14.951406342       -14.948997009         1.312010173
        54           27.000000         0.001493364        44.911096887       -14.951113672       -14.948987798         1.281835997
        55           27.500000         0.001335645        40.167879254       -14.950958360       -14.948981394         1.425708579
        56           28.000000         0.001368853        41.166577703       -14.950997836       -14.948979299         1.349172067
        57           28.500000         0.001586968        47.726134389       -14.951227340       -14.948981611         1.297586039
        58           29.000000         0.001923625        57.850680953       -14.951580052       -14.948986915         1.321819751
        59           29.500000         0.002274722        68.409490516       -14.951950002       -14.948992866         1.298165206
        60           30.000000         0.002534430        76.219889606       -14.952228915       -14.948997148         1.434763839
        61           30.500000         0.002630358        79.104809213       -14.952342300       -14.948998348         1.366532268
        62           31.000000         0.002544868        76.533787245       -14.952271367       -14.948996360         1.279082095
        63           31.500000         0.002316344        69.661224327       -14.952054466       -14.948992226         1.315278405
        64           32.000000         0.002022449        60.822669530       -14.951770174       -14.948987633         1.311665019
        65           32.500000         0.001753088        52.721961376       -14.951509891       -14.948984306         1.434289346
        66           33.000000         0.001582479        47.591118474       -14.951349461       -14.948983533         1.294234484
        67           33.500000         0.001548099        46.557176208       -14.951327632       -14.948985846         1.364214135
        68           34.000000         0.001641227        49.357897558       -14.951436280       -14.948990986         1.413791884
        69           34.500000         0.001810579        54.450956092       -14.951623751       -14.948997907         1.624191377
        70           35.000000         0.001977699        59.476864931       -14.951810298       -14.949005054         1.589333218
        71           35.500000         0.002060416        61.964481253       -14.951911782       -14.949010699         1.389544379
        72           36.000000         0.001998711        60.108791275       -14.951866002       -14.949013390         1.374588758
        73           36.500000         0.001776056        53.412702335       -14.951654671       -14.949012384         1.361828294
        74           37.000000         0.001429245        42.982780219       -14.951313921       -14.949007995         1.368062543
        75           37.500000         0.001041891        31.333604908       -14.950928241       -14.949001677         1.514105903
        76           38.000000         0.000721276        21.691485709       -14.950607235       -14.948995673         1.411657384
        77           38.500000         0.000564359        16.972397006       -14.950450909       -14.948992258         1.496630464
        78           39.000000         0.000624369        18.777145091       -14.950515102       -14.948992833         1.403634163
        79           39.500000         0.000891059        26.797502875       -14.950790715       -14.948997274         1.488351015
        80           40.000000         0.001293430        38.898332680       -14.951206067       -14.949003919         1.483597210
        81           40.500000         0.001724547        51.863654409       -14.951652146       -14.949010233         1.381458983
        82           41.000000         0.002078414        62.505770338       -14.952020451       -14.949013814         1.358440015
        83           41.500000         0.002284185        68.694074016       -14.952238134       -14.949013228         1.324224031
        84           42.000000         0.002325369        69.932639516       -14.952287677       -14.949008286         1.602134045
        85           42.500000         0.002239028        67.336022358       -14.952206209       -14.948999883         1.596174430
        86           43.000000         0.002097998        63.094714909       -14.952067450       -14.948989458         1.392023802
        87           43.500000         0.001984235        59.673453027       -14.951954643       -14.948978422         1.384569557
        88           44.000000         0.001962307        59.013990677       -14.951933612       -14.948967712         1.455747074
        89           44.500000         0.002060187        61.957600458       -14.952033178       -14.948957560         1.863707528
        90           45.000000         0.002261457        68.010537806       -14.952237078       -14.948947439         1.493094321
        91           45.500000         0.002510588        75.502858845       -14.952488534       -14.948935594         1.590088930
        92           46.000000         0.002728196        82.047157609       -14.952705953       -14.948919682         1.511092139
        93           46.500000         0.002833343        85.209311747       -14.952806123       -14.948897768         1.508022960
        94           47.000000         0.002768813        83.268652532       -14.952729459       -14.948868300         1.536200114
        95           47.500000         0.002521035        75.817026953       -14.952460601       -14.948830621         1.394423656
        96           48.000000         0.002128532        64.013001101       -14.952037536       -14.948785334         1.542717569
        97           48.500000         0.001674456        50.357228272       -14.951544578       -14.948734387         1.425183261
        98           49.000000         0.001263318        37.992733376       -14.951089032       -14.948680720         1.677259631
        99           49.500000         0.000988193        29.718709337       -14.950767679       -14.948627498         1.463445922
       100           50.000000         0.000899752        27.058940454       -14.950634669       -14.948577183         1.410753991
       101           50.500000         0.000989431        29.755936808       -14.950683671       -14.948530886         1.519222464
       102           51.000000         0.001194217        35.914600963       -14.950852227       -14.948488298         1.485527335
       103           51.500000         0.001421359        42.745630060       -14.951046829       -14.948448275         1.392232452
       104           52.000000         0.001582803        47.600849402       -14.951178139       -14.948409659         1.347211825
       105           52.500000         0.001625502        48.884992883       -14.951192118       -14.948371972         1.411459988
       106           53.000000         0.001546877        46.520440543       -14.951085969       -14.948335667         1.342905544
       107           53.500000         0.001391772        41.855837489       -14.950905157       -14.948301917         1.494509036
       108           54.000000         0.001234391        37.122809617       -14.950725124       -14.948272181         1.475476833
       109           54.500000         0.001152879        34.671422734       -14.950625494       -14.948247740         1.326490838
       110           55.000000         0.001204756        36.231569067       -14.950665088       -14.948229339         1.391341228
       111           55.500000         0.001409660        42.393814057       -14.950864321       -14.948217016         1.374070309
       112           56.000000         0.001743043        52.419898185       -14.951198638       -14.948210045         1.569504458
       113           56.500000         0.002141764        64.410944930       -14.951604040       -14.948207053         1.453973494
       114           57.000000         0.002520173        75.791106503       -14.951993252       -14.948206223         1.368222523
       115           57.500000         0.002793122        83.999719508       -14.952278995       -14.948205616         1.373449972
       116           58.000000         0.002900420        87.226580357       -14.952398880       -14.948203604         1.405335974
       117           58.500000         0.002825901        84.985510092       -14.952335001       -14.948199292         1.439756840
       118           59.000000         0.002604485        78.326712083       -14.952121507       -14.948192804         1.808335371
       119           59.500000         0.002313150        69.565158838       -14.951835815       -14.948185255         1.391301593
       120           60.000000         0.002046819        61.555581700       -14.951574301       -14.948178325         1.348046845
       121           60.500000         0.001886445        56.732509769       -14.951419676       -14.948173492         1.459203230
       122           61.000000         0.001870939        56.266195833       -14.951412000       -14.948171265         1.484767783
       123           61.500000         0.001984338        59.676541077       -14.951535210       -14.948170814         1.456128834
       124           62.000000         0.002163750        65.072120444       -14.951725014       -14.948170203         1.551273711
       125           62.500000         0.002324686        69.912093736       -14.951894770       -14.948167112         1.360822929
       126           63.000000         0.002393077        71.968849857       -14.951968309       -14.948159698         1.400014469
       127           63.500000         0.002331267        70.109987660       -14.951906609       -14.948147169         1.414684018
       128           64.000000         0.002149124        64.632264828       -14.951719208       -14.948129886         1.492836541
       129           64.500000         0.001898174        57.085249673       -14.951458300       -14.948109077         1.487533441
       130           65.000000         0.001652912        49.709301048       -14.951199767       -14.948086345         1.448821692
       131           65.500000         0.001486677        44.710002243       -14.951018630       -14.948063177         1.388525337
       132           66.000000         0.001449574        43.594156696       -14.950966550       -14.948040593         1.374875968
       133           66.500000         0.001554046        46.736035000       -14.951057078       -14.948018997         1.400113683
       134           67.000000         0.001771130        53.264564892       -14.951261615       -14.947998103         1.484344292
       135           67.500000         0.002037857        61.286059185       -14.951516803       -14.947977095         1.360302890
       136           68.000000         0.002274057        68.389471261       -14.951741453       -14.947954865         1.453743692
       137           68.500000         0.002404727        72.319221197       -14.951859234       -14.947930369         1.425345514
       138           69.000000         0.002382403        71.647867660       -14.951821507       -14.947903035         1.773114635
       139           69.500000         0.002202984        66.252054153       -14.951623665       -14.947873144         1.400120867
       140           70.000000         0.001909152        57.415422205       -14.951308931       -14.947841964         1.390595589
       141           70.500000         0.001578610        47.474771626       -14.950956710       -14.947811632         1.415591503
       142           71.000000         0.001299730        39.087789864       -14.950657558       -14.947784328         1.720250666
       143           71.500000         0.001141268        34.322251307       -14.950482853       -14.947762253         1.472803453
       144           72.000000         0.001129723        33.975039817       -14.950460692       -14.947746356         1.396148097
       145           72.500000         0.001241972        37.350772973       -14.950567561       -14.947735614         1.477686027
       146           73.000000         0.001415498        42.569372746       -14.950739603       -14.947728269         1.389013181
       147           73.500000         0.001573887        47.332725089       -14.950898341       -14.947722164         1.536371911
       148           74.000000         0.001655268        49.780166819       -14.950980059       -14.947715647         1.391740788
       149           74.500000         0.001633311        49.119816887       -14.950957533       -14.947708202         1.371609416
       150           75.000000         0.001524438        45.845617353       -14.950847134       -14.947700175         1.357770534
       151           75.500000         0.001379848        41.497254193       -14.950700558       -14.947692321         1.476419019
       152           76.000000         0.001266364        38.084353977       -14.950585880       -14.947685903         1.491776427
       153           76.500000         0.001244532        37.427763567       -14.950565263       -14.947682294         1.353726547
       154           77.000000         0.001349846        40.594953123       -14.950675392       -14.947682262         1.384053826
       155           77.500000         0.001581250        47.554159613       -14.950915731       -14.947685854         1.314015107
       156           78.000000         0.001899824        57.134870275       -14.951247080       -14.947692395         1.508254291
       157           78.500000         0.002237827        67.299910541       -14.951600650       -14.947700600         1.485877573
       158           79.000000         0.002516111        75.668958209       -14.951895643       -14.947708817         1.416413924
       159           79.500000         0.002665673        80.166865817       -14.952061331       -14.947715569         1.240753477
       160           80.000000         0.002648097        79.638287579       -14.952057796       -14.947719834         1.510437964
       161           80.500000         0.002468426        74.234877749       -14.951889076       -14.947721224         1.845984302
       162           81.000000         0.002174686        65.401014651       -14.951603242       -14.947720368         1.359103229
       163           81.500000         0.001843278        55.434342073       -14.951277857       -14.947718803         1.476640612
       164           82.000000         0.001554156        46.739341216       -14.950994562       -14.947718275         1.721387343
       165           82.500000         0.001364027        41.021455407       -14.950811523       -14.947720008         1.593494555
       166           83.000000         0.001287895        38.731851109       -14.950744346       -14.947724218         1.399251660
       167           83.500000         0.001296490        38.990346193       -14.950763244       -14.947730026         1.394710578
       168           84.000000         0.001330348        40.008595205       -14.950807480       -14.947735965         1.342672532
       169           84.500000         0.001324860        39.843553049       -14.950810824       -14.947740434         1.422321303
       170           85.000000         0.001235604        37.159271213       -14.950727471       -14.947742249         1.480937529
       171           85.500000         0.001054464        31.711703675       -14.950548831       -14.947741209         1.460239720
       172           86.000000         0.000812190        24.425607918       -14.950306177       -14.947738056         1.366982438
       173           86.500000         0.000567910        17.079212653       -14.950059866       -14.947734075         1.312556632
       174           87.000000         0.000390259        11.736566420       -14.949880031       -14.947730621         1.367379125
       175           87.500000         0.000336510        10.120111784       -14.949825332       -14.947728780         1.438290436
       176           88.000000         0.000435724        13.103876921       -14.949925759       -14.947729124         1.543426320
       177           88.500000         0.000679961        20.448995811       -14.950173619       -14.947731594         1.398633184
       178           89.000000         0.001025404        30.837775139       -14.950524625       -14.947735520         1.671936655
       179           89.500000         0.001403128        42.197351712       -14.950908785       -14.947739749         1.407958450
       180           90.000000         0.001737077        52.240453266       -14.951248649       -14.947742903         1.277373480
       181           90.500000         0.001965034        59.096004013       -14.951480518       -14.947743595         1.479961980
       182           91.000000         0.002056424        61.844430697       -14.951572809       -14.947740986         1.387086002
       183           91.500000         0.002021230        60.786026926       -14.951535478       -14.947735253         1.307859756
       184           92.000000         0.001906633        57.339654133       -14.951416477       -14.947727360         1.539258607
       185           92.500000         0.001780496        53.546243459       -14.951285033       -14.947718775         1.507864386
       186           93.000000         0.001706807        51.330129656       -14.951206713       -14.947711067         1.588688141
       187           93.500000         0.001722255        51.794712980       -14.951219335       -14.947705252         1.382606771
       188           94.000000         0.001822978        54.823835420       -14.951319264       -14.947701400         1.373933708
       189           94.500000         0.001966914        59.152539894       -14.951463754       -14.947698698         1.473150142
       190           95.000000         0.002090729        62.876109840       -14.951588270       -14.947695896         1.533692025
       191           95.500000         0.002134246        64.184835509       -14.951631504       -14.947691914         1.075212296
       192           96.000000         0.002062674        62.032381318       -14.951558096       -14.947686347         1.369688481
       193           96.500000         0.001878747        56.501007534       -14.951371032       -14.947679670         1.406384384
       194           97.000000         0.001621641        48.768869041       -14.951110450       -14.947673053         1.519130507
       195           97.500000         0.001354321        40.729548604       -14.950840682       -14.947667982         1.440444222
       196           98.000000         0.001144419        34.417006601       -14.950630777       -14.947665854         1.519416697
       197           98.500000         0.001044789        31.420746999       -14.950534689       -14.947667630         1.468163077
       198           99.000000         0.001079001        32.449641094       -14.950576493       -14.947673611         1.434159001
       199           99.500000         0.001235169        37.146208921       -14.950744021       -14.947683322         1.500523720
       200          100.000000         0.001469308        44.187642152       -14.950992306       -14.947695637         1.641010042
       201          100.500000         0.001717536        51.652786734       -14.951255891       -14.947708904         1.638099538
       202          101.000000         0.001914256        57.568905038       -14.951467281       -14.947721215         1.392399505
       203          101.500000         0.002011449        60.491873849       -14.951576645       -14.947730816         1.142284228
       204          102.000000         0.001993455        59.950714624       -14.951567078       -14.947736581         1.466799147
       205          102.500000         0.001881982        56.598317940       -14.951460043       -14.947738406         1.763430821
       206          103.000000         0.001729504        52.012726921       -14.951308181       -14.947736576         1.396722088
       207          103.500000         0.001600626        48.136861758       -14.951176986       -14.947732022         1.382877400
       208          104.000000         0.001548422        46.566896725       -14.951121086       -14.947726249         1.370168692
       209          104.500000         0.001595597        47.985614542       -14.951164238       -14.947720203         1.516917892
       210          105.000000         0.001726041        51.908565540       -14.951290806       -14.947714230         1.487034569
       211          105.500000         0.001893535        56.945741555       -14.951452261       -14.947705921         1.431573238
       212          106.000000         0.002037887        61.286943341       -14.951585869       -14.947692694         1.374359742
       213          106.500000         0.002105357        63.316033029       -14.951638085       -14.947674767         1.340861298
       214          107.000000         0.002069831        62.247647303       -14.951583844       -14.947653288         1.532037063
       215          107.500000         0.001941451        58.386763889       -14.951435153       -14.947630263         1.389835622
       216          108.000000         0.001762860        53.015862980       -14.951237032       -14.947608200         1.373902755
       217          108.500000         0.001595438        47.980853318       -14.951053287       -14.947589591         1.396687197
       218          109.000000         0.001500608        45.128957830       -14.950947363       -14.947576426         1.776533356
       219          109.500000         0.001521938        45.770411418       -14.950964018       -14.947569785         1.464262968
       220          110.000000         0.001672773        50.306600609       -14.951116812       -14.947569716         1.384906936
       221          110.500000         0.001932306        58.111728663       -14.951384152       -14.947575258         1.382260671
       222          111.000000         0.002250979        67.695446314       -14.951714906       -14.947584673         1.343758585
       223          111.500000         0.002563915        77.106591411       -14.952042166       -14.947595799         1.639445584
       224          112.000000         0.002809019        84.477818256       -14.952301803       -14.947606518         1.232260153
       225          112.500000         0.002944879        88.563626746       -14.952450785       -14.947615220         1.371622002
       226          113.000000         0.002962869        89.104661201       -14.952479635       -14.947621151         1.437243130
       227          113.500000         0.002888997        86.883038357       -14.952414426       -14.947624543         1.405578068