       8
 i =        0, time =        0.000, E =       -14.9532117800
  C         4.0058395270        4.9641537670        5.1864856480
  C         5.4218214750        5.5278277400        5.2937644720
  H         3.9724674820        3.9003586770        5.4635930060
  H         3.6149466040        5.0478839870        4.1617289190
  H         3.3075878020        5.4963409900        5.8483761550
  H         5.4520475860        6.5938252210        5.0262391570
  H         6.1169809100        5.0018978120        4.6239775420
  H         5.8149087430        5.4333114620        6.3158357140
       8
 i =        1, time =        0.500, E =       -14.9531392323
  C         4.0060593634        4.9645496505        5.1863948161
  C         5.4212155884        5.5280021391        5.2932133662
  H         3.9784989560        3.8967085840        5.4662829138
  H         3.6205685026        5.0463701126        4.1631558143
  H         3.3093644497        5.4949227718        5.8531020709
  H         5.4519201112        6.5924501620        5.0294282246
  H         6.1120539989        4.9991639904        4.6221191971
  H         5.8111341989        5.4372044769        6.3133131909
       8
 i =        2, time =        1.000, E =       -14.9529875147
  C         4.0062469850        4.9648998817        5.1863327760
  C         5.4206352625        5.5281835494        5.2926559942
  H         3.9843889996        3.8935200723        5.4688039948
  H         3.6259661279        5.0448275688        4.1645505559
  H         3.3111539032        5.4933498787        5.8576037265
  H         5.4519060185        6.5911389013        5.0325436029
  H         6.1072299829        4.9965718122        4.6203841202
  H         5.8075773721        5.4410690516        6.3109010710
       8
 i =        3, time =        1.500, E =       -14.9527853202
  C         4.0064101029        4.9651803906        5.1863319386
  C         5.4200725772        5.5283657629        5.2920840125
  H         3.9900944915        3.8910694045        5.4710637434
  H         3.6309733529        5.0432734972        4.1657109987
  H         3.3129577744        5.4915835422        5.8617809635
  H         5.4520084619        6.5900603657        5.0354665616
  H         6.1025886527        4.9941474029        4.6187813385
  H         5.8043654763        5.4448161317        6.3088171821
       8
 i =        4, time =        2.000, E =       -14.9525714236
  C         4.0065568065        4.9653717699        5.1864199080
  C         5.4195204332        5.5285438810        5.2914911568
  H         3.9955722634        3.8895665574        5.4729869273
  H         3.6354396198        5.0417235059        4.1664597222
  H         3.3147651777        5.4895992788        5.8655499064
  H         5.4522284769        6.5893644846        5.0380868133
  H         6.0982096603        4.9919121616        4.6173154858
  H         5.8016106663        5.4483627581        6.3072495492
       8
 i =        5, time =        2.500, E =       -14.9523837189
  C         4.0066949969        4.9654603179        5.1866171423
  C         5.4189733101        5.5287152448        5.2908743128
  H         4.0007803928        3.8891411663        5.4745196325
  H         3.6392383526        5.0401905086        4.1666642792
  H         3.3165506179        5.4873894323        5.8688466761
  H         5.4525647897        6.5891677003        5.0403078279
  H         6.0941702500        4.9898832257        4.6159877814
  H         5.7994025846        5.4516352809        6.3063371932
       8
 i =        6, time =        3.000, E =       -14.9522486441
  C         4.0068318411        4.9654386702        5.1869351721
  C         5.4184278955        5.5288801733        5.2902342965
  H         4.0056795732        3.8898343427        5.4756318398
  H         3.6422735904        5.0386838845        4.1662534890
  H         3.3182732297        5.4849644370        5.8716298710
  H         5.4530136817        6.5895411796        5.0420512141
  H         6.0905428810        4.9880741495        4.6147971759
  H         5.7978026109        5.4545719076        6.3061552005
       8
 i =        7, time =        3.500, E =       -14.9521744310
  C         4.0069733238        4.9653060503        5.1873755978
  C         5.4178835144        5.5290423987        5.2895762028
  H         4.0102344139        3.8915960451        5.4763185673
  H         3.6444840838        5.0372090660        4.1652273128
  H         3.3198774827        5.4823526955        5.8738815243
  H         5.4535689188        6.5905032180        5.0432597730
  H         6.0873928050        4.9864957777        4.6137416348
  H         5.7968405015        5.4571244077        6.3067061708
       8
 i =        8, time =        4.000, E =       -14.9521504810
  C         4.0071239414        4.9650681630        5.1879300084
  C         5.4173423117        5.5292091205        5.2889092413
  H         4.0144145581        3.8942877803        5.4765995962
  H         3.6458444302        5.0357675985        4.1636587085
  H         3.3212953675        5.4795990576        5.8756064922
  H         5.4542217572        6.5920168639        5.0438989750
  H         6.0847756517        4.9851572415        4.6128194766
  H         5.7965138317        5.4592589077        6.3079193581
       8
 i =        9, time =        4.500, E =       -14.9521530693
  C         4.0072865511        4.9647367221        5.1885808532
  C         5.4168091752        5.5293906535        5.2882460611
  H         4.0181955282        3.8976906954        5.4765177516
  H         3.6463632379        5.0343576394        4.1616871130
  H         3.3224500072        5.4767619467        5.8768302587
  H         5.4549610364        6.5939930599        5.0439568011
  H         6.0827351749        4.9840669660        4.6120306482
  H         5.7967902335        5.4609558275        6.3096576296
       8
 i =       10, time =        5.000, E =       -14.9521553513
  C         4.0074623567        4.9643285877        5.1893031779
  C         5.4162914233        5.5295997039        5.2876016569
  H         4.0215592231        3.9015193186        5.4761356690
  H         3.6460787584        5.0329747984        4.1595045603
  H         3.3232605281        5.4739092873        5.8775952622
  H         5.4557733707        6.5962989192        5.0434420816
  H         6.0813013207        4.9832335732        4.6113777884
  H         5.7976120354        5.4622090994        6.3117311788
       8
 i =       11, time =        5.500, E =       -14.9521380841
  C         4.0076509901        4.9638644819        5.1900670295
  C         5.4157983075        5.5298503577        5.2869920062
  H         4.0244939925        3.9054411880        5.4755309989
  H         3.6450527194        5.0316131814        4.1573365553
  H         3.3236479111        5.4711134754        5.8779560252
  H         5.4566434526        6.5987700985        5.0423816191
  H         6.0804887591        4.9826665628        4.6108669590
  H         5.7989026253        5.4630248616        6.3139160224
       8
 i =       12, time =        6.000, E =       -14.9520972467
  C         4.0078506549        4.9633672846        5.1908402665
  C         5.4153403866        5.5301569167        5.2864326321
  H         4.0269942877        3.9091020185        5.4747901491
  H         3.6433632067        5.0302664983        4.1554202908
  H         3.3235413722        5.4684458320        5.8779735542
  H         5.4575544311        6.6012256057        5.0408165248
  H         6.0802961330        4.9823765782        4.6105078279
  H         5.8005736632        5.4634198386        6.3159747627
       8
 i =       13, time =        6.500, E =       -14.9520458503
  C         4.0080582979        4.9628599555        5.1915914982
  C         5.4149288422        5.5305326926        5.2859372433
  H         4.0290598864        3.9121555099        5.4740008395
  H         3.6410973580        5.0289291072        4.1539827420
  H         3.3228847952        5.4659709131        5.8777094994
  H         5.4584883892        6.6034836503        5.0387980960
  H         6.0807059920        4.9823752763        4.6103133262
  H         5.8025324558        5.4634195590        6.3176774344
       8
 i =       14, time =        7.000, E =       -14.9520092670
  C         4.0082697886        4.9623632543        5.1922928437
  C         5.4145747882        5.5309889045        5.2855165901
  H         4.0306947538        3.9142952899        5.4732440849
  H         3.6383446247        5.0275968965        4.1532211598
  H         3.3216425948        5.4637412678        5.8772206182
  H         5.4594268694        6.6053767726        5.0363837072
  H         6.0816855408        4.9826747210        4.6102987193
  H         5.8046887999        5.4630565764        6.3188203532
       8
 i =       15, time =        7.500, E =       -14.9520156868
  C         4.0084801200        4.9618934918        5.1929222948
  C         5.4142886066        5.5315337609        5.2851776194
  H         4.0319057739        3.9152856357        5.4725865076
  H         3.6351908927        5.0262679614        4.1532869340
  H         3.3198043790        5.4617932024        5.8765542793
  H         5.4603514059        6.6067651860        5.0336329544
  H         6.0831882332        4.9832862725        4.6104800552
  H         5.8069608692        5.4623687650        6.3192417796
       8
 i =       16, time =        8.000, E =       -14.9520851116
  C         4.0086836341        4.9614606368        5.1934654720
  C         5.4140793417        5.5321717892        5.2849229506
  H         4.0327015502        3.9149867387        5.4720740381
  H         3.6317137626        5.0249430438        4.1542738773
  H         3.3173879288        5.4601439841        5.8757454240
  H         5.4612440352        6.6075474427        5.0306042901
  H         6.0851560584        4.9842191074        4.6108721753
  H         5.8092799114        5.4613977558        6.3188336536
       8
 i =       17, time =        8.500, E =       -14.9522208891
  C         4.0088742786        4.9610670888        5.1939166412
  C         5.4139541736        5.5329034401        5.2847506709
  H         4.0330915167        3.9133704763        5.4717280035
  H         3.6279790941        5.0236257301        4.1562111885
  H         3.3144400912        5.4587908026        5.8748153429
  H         5.4620877476        6.6076679328        5.0273522860
  H         6.0875223788        4.9854784950        4.6114864462
  H         5.8115936301        5.4601875442        6.3175491355
       8
 i =       18, time =        9.000, E =       -14.9524068865
  C         4.0090458935        4.9607073404        5.1942789280
  C         5.4139179883        5.5337249709        5.2846544247
  H         4.0330855402        3.9105239229        5.4715442549
  H         3.6240388544        5.0223224173        4.1590611074
  H         3.3110354280        5.4577115920        5.8737723183
  H         5.4628668480        6.6071209816        5.0239256070
  H         6.0902151208        4.9870640005        4.6123284277
  H         5.8138682362        5.4587832922        6.3154059188
       8
 i =       19, time =        9.500, E =       -14.9526112848
  C         4.0091925151        4.9603685912        5.1945637438
  C         5.4139730688        5.5346285992        5.2846237695
  H         4.0326940647        3.9066399356        5.4714954388
  H         3.6199302995        5.0210420635        4.1627211744
  H         3.3072727256        5.4568676013        5.8726139932
  H         5.4635672024        6.6059514564        5.0203657510
  H         6.0931600971        4.9889678070        4.6133957097
  H         5.8160891094        5.4572303524        6.3124853669
       8
 i =       20, time =       10.000, E =       -14.9527955452
  C         4.0093086688        4.9600321964        5.1947895028
  C         5.4141189324        5.5356029070        5.2846447718
  H         4.0319287215        3.9019964748        5.4715359344
  H         3.6156765637        5.0197957559        4.1670309605
  H         3.3032696746        5.4562074044        5.8713311138
  H         5.4641763490        6.6042518811        5.0167065919
  H         6.0962842378        4.9911733437        4.6146761461
  H         5.8182600448        5.4555735460        6.3089275214
       8
 i =       21, time =       10.500, E =       -14.9529254011
  C         4.0093896192        4.9596756910        5.1949797648
  C         5.4143523402        5.5366334748        5.2847008206
  H         4.0308032165        3.8969281110        5.4716085617
  H         3.6112886795        5.0185961212        4.1717830790
  H         3.2991561461        5.4556718941        5.8699120922
  H         5.4646834698        6.6021562096        5.0129747509
  H         6.0995185158        4.9936543831        4.6161466842
  H         5.8204010475        5.4538567399        6.3049220525
       8
 i =       22, time =       11.000, E =       -14.9529802956
  C         4.0094315328        4.9592750714        5.1951609709
  C         5.4146675048        5.5377037113        5.2847736339
  H         4.0293342714        3.8917940159        5.4716519760
  H         3.6067690761        5.0174566210        4.1767381036
  H         3.2950667601        5.4551997406        5.8683478205
  H         5.4650792284        6.5998304119        5.0091907978
  H         6.1028003785        4.9963747404        4.6177729368
  H         5.8225446593        5.4521227599        6.3006953195
       8
 i =       23, time =       11.500, E =       -14.9529584871
  C         4.0094315497        4.9588070375        5.1953599569
  C         5.4150564900        5.5387958293        5.2848444191
  H         4.0275424451        3.8869463635        5.4716077951
  H         3.6021164115        5.0163907809        4.1816426073
  H         3.2911332564        5.4547328508        5.8666362999
  H         5.4653554624        6.5974603655        5.0053712407
  H         6.1060754990        4.9992886671        4.6195096206
  H         5.8247308735        5.4504136643        6.2964939530
       8
 i =       24, time =       12.000, E =       -14.9528765124
  C         4.0093877094        4.9582509785        5.1956014372
  C         5.4155098073        5.5398919201        5.2848951237
  H         4.0254526493        3.8827022648        5.4714267501
  H         3.5973314818        5.0154114009        4.1862492975
  H         3.2874773550        5.4542212694        5.8647864193
  H         5.4655048033        6.5952376724        5.0015311866
  H         6.1092988372        5.0023419516        4.6213018520
  H         5.8270009384        5.4487713642        6.2925658922
       8
 i =       25, time =       12.500, E =       -14.9527633738
  C         4.0092987778        4.9575905847        5.1959056611
  C         5.4160171467        5.5409750391        5.2849096842
  H         4.0230943425        3.8793208538        5.4710734834
  H         3.5924236255        5.0145298034        4.1903374345
  H         3.2842045374        5.4536272666        5.8628206980
  H         5.4655202467        6.5933444562        4.9976874430
  H         6.1124349243        5.0054736928        4.6230872567
  H         5.8293905109        5.4472384884        6.2891402477
       8
 i =       26, time =       13.000, E =       -14.9526513250
  C         4.0091640154        4.9568150412        5.1962864650
  C         5.4165681866        5.5420302120        5.2848751566
  H         4.0205013786        3.8769864395        5.4705298934
  H         3.5874167131        5.0137551676        4.1937311868
  H         3.2813991783        5.4529282788        5.8607767572
  H         5.4653947501        6.5919383661        4.9938617059
  H         6.1154571827        5.0086187425        4.6247988659
  H         5.8319228240        5.4458593277        6.2864077562
       8
 i =       27, time =       13.500, E =       -14.9525660662
  C         4.0089829409        4.9559198255        5.1967498786
  C         5.4171533722        5.5430452693        5.2847825921
  H         4.0177115541        3.8757974569        5.4697970524
  H         3.5823539678        5.0130940228        4.1963141386
  H         3.2791212565        5.4521186374        5.8587074103
  H         5.4651209137        6.5911393216        4.9900834205
  H         6.1183466814        5.0117105755        4.6263685244
  H         5.8346027810        5.4446806026        6.2845041732
       8
 i =       28, time =       14.000, E =       -14.9525194601
  C         4.0087551594        4.9549071331        5.1972934491
  C         5.4177645741        5.5440114205        5.2846275446
  H         4.0147658977        3.8757610773        5.4688958258
  H         3.5773006202        5.0125499332        4.1980378326
  H         3.2774048072        5.4512099651        5.8566794108
  H         5.4646908189        6.5910194338        4.9863918496
  H         6.1210902031        5.0146844711        4.6277306344
  H         5.8374128230        5.4437517927        6.2834985273
       8
 i =       29, time =       14.500, E =       -14.9525070689
  C         4.0084803050        4.9537859495        5.1979063568
  C         5.4183955412        5.5449235097        5.2844101313
  H         4.0117077583        3.8767931472        5.4678662801
  H         3.5723437973        5.0121234007        4.1989233108
  H         3.2762581537        5.4502302625        5.8547709484
  H         5.4640960680        6.5915972318        4.9828369492
  H         6.1236779528        5.0174807630        4.6288259460
  H         5.8403112803        5.4431247835        6.2833879194
       8
 i =       30, time =       15.000, E =       -14.9525113063
  C         4.0081581133        4.9525717599        5.1985703102
  C         5.4190420925        5.5457799285        5.2841346394
  H         4.0085817472        3.8787235224        5.4667659157
  H         3.5675894855        5.0118119950        4.1990556516
  H         3.2756658643        5.4492217454        5.8530680601
  H         5.4633280354        6.5928369255        4.9794787690
  H         6.1261011372        5.0200479221        4.6296050973
  H         5.8432335426        5.4428527083        6.2840994456
       8
 i =       31, time =       15.500, E =       -14.9525090889
  C         4.0077886056        4.9512858655        5.1992611238
  C         5.4197020379        5.5465822041        5.2838087366
  H         4.0054325941        3.8813070006        5.4656667012
  H         3.5631568487        5.0116106864        4.1985724228
  H         3.2755922854        5.4482375554        5.8516601762
  H         5.4623783081        6.5946527073        4.9763853490
  H         6.1283496777        5.0223452212        4.6300316033
  H         5.8460959515        5.4429880089        6.2854989229
       8
 i =       32, time =       16.000, E =       -14.9524813318
  C         4.0073723326        4.9499542617        5.1999508116
  C         5.4203748534        5.5473343242        5.2834424048
  H         4.0023040005        3.8842401791        5.4646508676
  H         3.5591706387        5.0115123435        4.1976478435
  H         3.2759863940        5.4473375288        5.8506350660
  H         5.4612392562        6.5969175146        4.9736292671
  H         6.1304103789        5.0243447528        4.6300840252
  H         5.8488018968        5.4435798925        6.2874050382
       8
 i =       33, time =       16.500, E =       -14.9524209896
  C         4.0069106185        4.9486060566        5.2006099929
  C         5.4210611723        5.5480418859        5.2830467467
  H         3.9992375782        3.8871843091        5.4638054745
  H         3.5557526552        5.0115083426        4.1964747931
  H         3.2767876060        5.4465832850        5.8500734889
  H         5.4599046537        6.5994750880        4.9712832096
  H         6.1322657650        5.0260326264        4.6297571260
  H         5.8512493062        5.4446714751        6.2896070171
       8
 i =       34, time =       17.000, E =       -14.9523367945
  C         4.0064057526        4.9472714605        5.2012103954
  C         5.4217621551        5.5487111700        5.2826328120
  H         3.9962719793        3.8897934108        5.4632158975
  H         3.5530132185        5.0115892361        4.1952466844
  H         3.2779320884        5.4460329679        5.8500438840
  H         5.4583702655        6.6021539664        4.9694150458
  H         6.1338937946        5.0274092230        4.6290618889
  H         5.8533386215        5.4462969420        6.2918836484
       8
 i =       35, time =       17.500, E =       -14.9522512414
  C         4.0058610978        4.9459794613        5.2017272575
  C         5.4224788440        5.5493482421        5.2822105565
  H         3.9934422777        3.8917458213        5.4629586550
  H         3.5510433797        5.0117454312        4.1941406817
  H         3.2793588795        5.4457361118        5.8505975770
  H         5.4566343330        6.6047819425        4.9680828976
  H         6.1352683922        5.0284885804        4.6280245038
  H         5.8549804396        5.4484790195        6.2940217633
       8
 i =       36, time =       18.000, E =       -14.9521933248
  C         4.0052811192        4.9447554231        5.2021414403
  C         5.4232114946        5.5499581540        5.2817880250
  H         3.9907796974        3.8927762767        5.4630941674
  H         3.5499086667        5.0119678270        4.1933038224
  H         3.2810155091        5.4457289716        5.8517646676
  H         5.4546978799        6.6071997098        4.9673306770
  H         6.1363610077        5.0292968021        4.6266842222
  H         5.8561021548        5.4512269955        6.2958326770
       8
 i =       37, time =       18.500, E =       -14.9521884448
  C         4.0046713522        4.9436189034        5.2024410998
  C         5.4239590014        5.5505443077        5.2813707781
  H         3.9883116119        3.8927042683        5.4636603851
  H         3.5496444513        5.0122483778        4.1928422311
  H         3.2828622629        5.4460308841        5.8535511554
  H         5.4525648294        6.6092727121        4.9671844026
  H         6.1371428191        5.0298698339        4.6250905074
  H         5.8566532268        5.4545354057        6.2971656273
       8
 i =       38, time =       19.000, E =       -14.9522490442
  C         4.0040383493        4.9425820335        5.2026227946
  C         5.4247184149        5.5511080114        5.2809615727
  H         3.9860617499        3.8914544540        5.4646681889
  H         3.5502531834        5.0125805493        4.1928139184
  H         3.2848748119        5.4466419738        5.8559374547
  H         5.4502419133        6.6109005233        4.9676495327
  H         6.1375874692        5.0302507159        4.6232996202
  H         5.8566088489        5.4583834398        6.2979177359
       8
 i =       39, time =       19.500, E =       -14.9523694166
  C         4.0033896361        4.9416487345        5.2026919368
  C         5.4254845825        5.5516482393        5.2805602790
  H         3.9840504753        3.8890656234        5.4660993451
  H         3.5517035169        5.0129596370        4.1932252771
  H         3.2870449009        5.4475424832        5.8588785030
  H         5.4477383844        6.6120233470        4.9687094370
  H         6.1376740423        5.0304865638        4.6213709520
  H         5.8559719543        5.4627350577        6.2980402459
       8
 i =       40, time =       20.000, E =       -14.9525265739
  C         4.0027336933        4.9408149030        5.2026625498
  C         5.4262499349        5.5521615958        5.2801640105
  H         3.9822950087        3.8856866151        5.4679074078
  H         3.5539313043        5.0133829200        4.1940312852
  H         3.2893790674        5.4486938133        5.8623054965
  H         5.4450655695        6.6126254428        4.9703250605
  H         6.1373900029        5.0306255065        4.6193633746
  H         5.8547735634        5.4675397818        6.2975409935
       8
 i =       41, time =       20.500, E =       -14.9526868106
  C         4.0020799533        4.9400695133        5.2025563436
  C         5.4270044350        5.5526424774        5.2797674498
  H         3.9808095091        3.8815598638        5.4700214501
  H         3.5568424572        5.0138496264        4.1951394749
  H         3.2918955773        5.4500411887        5.8661291675
  H         5.4422363090        6.6127353422        4.9724357906
  H         6.1367338269        5.0307137916        4.6173318562
  H         5.8530714921        5.4727341080        6.2964830695
       8
 i =       42, time =       21.000, E =       -14.9528155652
  C         4.0014387819        4.9393964184        5.2024011707
  C         5.4277357039        5.5530834292        5.2793633581
  H         3.9796050027        3.8769954879        5.4723520488
  H         3.5603176213        5.0143606870        4.1964177544
  H         3.2946199473        5.4515177075        5.8702443802
  H         5.4392643434        6.6124228767        4.9749615196
  H         6.1357171135        5.0307932207        4.6153245301
  H         5.8509474432        5.4782434789        6.2949796224
       8
 i =       43, time =       21.500, E =       -14.9528872361
  C         4.0008214079        4.9387765306        5.2022289817
  C         5.4284293332        5.5534756665        5.2789432516
  H         3.9786892181        3.8723401872        5.4747986300
  H         3.5642185418        5.0149182570        4.1977058212
  H         3.2975796026        5.4530493247        5.8745357258
  H         5.4361637290        6.6117931731        4.9778057909
  H         6.1343658780        5.0308991186        4.6133804502
  H         5.8485025527        5.4839847184        6.2931849079
       8
 i =       44, time =       22.000, E =       -14.9528919176
  C         4.0002397558        4.9381900733        5.2020734054
  C         5.4290693756        5.5538097715        5.2784982415
  H         3.9780663986        3.8679448798        5.4772572519
  H         3.5683959427        5.0155250168        4.1988299751
  H         3.3007981787        5.4545604217        5.8788837218
  H         5.4329483512        6.6109776944        4.9808599985
  H         6.1327210965        5.0310588265        4.6115280157
  H         5.8458514925        5.4898688418        6.2912816587
       8
 i =       45, time =       22.500, E =       -14.9528371801
  C         3.9997061727        4.9376186414        5.2019671425
  C         5.4296389994        5.5540765203        5.2780199931
  H         3.9777371788        3.8641348597        5.4796280280
  H         3.5726983803        5.0161832616        4.1996203813
  H         3.3042900747        5.4559793906        5.8831711822
  H         5.4296316100        6.6101228072        4.9840084030
  H         6.1308382591        5.0312908844        4.6097842367
  H         5.8431154001        5.4958040748        6.2894653769
       8
 i =       46, time =       23.000, E =       -14.9527446352
  C         3.9992330607        4.9370469134        5.2019393681
  C         5.4301212612        5.5542677925        5.2775017503
  H         3.9776985754        3.8611847079        5.4818215935
  H         3.5769814425        5.0168938510        4.1999294695
  H         3.3080557420        5.4572438105        5.8872892754
  H         5.4262263448        6.6093765974        4.9871337110
  H         6.1287859681        5.0316049152        4.6081548683
  H         5.8404140547        5.5016988889        6.2879264383
       8
 i =       47, time =       23.500, E =       -14.9526424496
  C         3.9988324688        4.9364639401        5.2020133739
  C         5.4304999469        5.5543774937        5.2769393267
  H         3.9779441191        3.8592990373        5.4837643661
  H         3.5811162412        5.0176551110        4.1996491999
  H         3.3120779942        5.4583048618        5.8911430536
  H         5.4227450234        6.6088749989        4.9901227663
  H         6.1266435452        5.0320022409        4.6066354335
  H         5.8378579599        5.5074648180        6.2868316040
       8
 i =       48, time =       24.000, E =       -14.9525561936
  C         3.9985156921        4.9358640257        5.2022046621
  C         5.4307604000        5.5544024029        5.2763319435
  H         3.9784640924        3.8585992222        5.4854024579
  H         3.5849964431        5.0184618461        4.1987253932
  H         3.3163197475        5.4591306385        5.8946558563
  H         5.4192001701        6.6087284565        4.9928719890
  H         6.1244977873        5.0324771648        4.6052130556
  H         5.8355410753        5.5130188859        6.2863067844
       8
 i =       49, time =       24.500, E =       -14.9525008880
  C         3.9982929459        4.9352472168        5.2025197005
  C         5.4308902681        5.5543428412        5.2756827818
  H         3.9792458612        3.8591158991        5.4867042322
  H         3.5885428867        5.0193046084        4.1971668153
  H         3.3207232702        5.4597081645        5.8977724978
  H         5.4156049785        6.6090105692        4.9952920603
  H         6.1224389435        5.0330188707        4.6038690274
  H         5.8335349985        5.5182854790        6.2864232376
       8
 i =       50, time =       25.000, E =       -14.9524768580
  C         3.9981731532        4.9346194260        5.2029554778
  C         5.4308801033        5.5542030632        5.2749991384
  H         3.9802742641        3.8607869806        5.4876615237
  H         3.5917053158        5.0201693644        4.1950475501
  H         3.3252110276        5.4600439665        5.9004609166
  H         5.4119740037        6.6097500751        4.9973114322