 DBCSR| CPU Multiplication driver                                           XSMM
 DBCSR| Multrec recursion limit                                              512
 DBCSR| Multiplication stack size                                           1000
 DBCSR| Maximum elements for images                                    UNLIMITED
 DBCSR| Multiplicative factor virtual images                                   1
 DBCSR| Use multiplication densification                                       T
 DBCSR| Multiplication size stacks                                             3
 DBCSR| Use memory pool for CPU allocation                                     F
 DBCSR| Number of 3D layers                                               SINGLE
 DBCSR| Use MPI memory allocation                                              F
 DBCSR| Use RMA algorithm                                                      F
 DBCSR| Use Communication thread                                               T
 DBCSR| Communication thread load                                             87
 DBCSR| MPI: My node id                                                        0
 DBCSR| MPI: Number of nodes                                                  24
 DBCSR| OMP: Current number of threads                                         1
 DBCSR| OMP: Max number of threads                                             1
 DBCSR| Split modifier for TAS multiplication algorithm                  1.0E+00


  **** **** ******  **  PROGRAM STARTED AT               2021-10-27 14:09:28.841
 ***** ** ***  *** **   PROGRAM STARTED ON                                node10
 **    ****   ******    PROGRAM STARTED BY                               lujunbo
 ***** **    ** ** **   PROGRAM PROCESS ID                                281821
  **** **  *******  **  PROGRAM STARTED IN /home/lujunbo/WORK/deepmd/c2h6/mtd/tr
                                           ain_4_sys/cp2k_md/sys_4/data/task_174
                                           4

 CP2K| version string:                                          CP2K version 8.2
 CP2K| source code revision number:                                  git:310b7ab
 CP2K| cp2kflags: omp libint fftw3 libxc elpa parallel mpi3 scalapack xsmm plume
 CP2K|            d2 spglib mkl libvori libbqb
 CP2K| is freely available from                            https://www.cp2k.org/
 CP2K| Program compiled at                          Tue Jun  1 15:18:23 CST 2021
 CP2K| Program compiled on                                                   mgr
 CP2K| Program compiled for                                                local
 CP2K| Data directory path                       /home/lujunbo/bin/cp2k-8.2/data
 CP2K| Input file name                                                 input.inp

 GLOBAL| Force Environment number                                              1
 GLOBAL| Basis set file name            /home/lujunbo/bin/cp2k-8.2/data/BASIS_MO
 GLOBAL| Potential file name            /home/lujunbo/bin/cp2k-8.2/data/POTENTIA
 GLOBAL| MM Potential file name                                     MM_POTENTIAL
 GLOBAL| Coordinate file name                                      __STD_INPUT__
 GLOBAL| Method name                                                        CP2K
 GLOBAL| Project name                                                       cp2k
 GLOBAL| Run type                                                   ENERGY_FORCE
 GLOBAL| FFT library                                                       FFTW3
 GLOBAL| Diagonalization library                                            ELPA
 GLOBAL| Minimum number of eigenvectors for ELPA usage                        16
 GLOBAL| Orthonormality check for eigenvectors                          DISABLED
 GLOBAL| Matrix multiplication library                                    SCALAP
 GLOBAL| All-to-all communication in single precision                          F
 GLOBAL| FFTs using library dependent lengths                                  F
 GLOBAL| Grid backend                                                       AUTO
 GLOBAL| Global print level                                                  LOW
 GLOBAL| MPI I/O enabled                                                       T
 GLOBAL| Total number of message passing processes                            24
 GLOBAL| Number of threads for this process                                    1
 GLOBAL| This output is from process                                           0
 GLOBAL| CPU model name             Intel(R) Xeon(R) Platinum 9242 CPU @ 2.30GHz
 GLOBAL| CPUID                                                              1003

 MEMORY| system memory details [Kb]
 MEMORY|                        rank 0           min           max       average
 MEMORY| MemTotal            394609400     394609400     394609400     394609400
 MEMORY| MemFree             296072388     296072388     296072388     296072388
 MEMORY| Buffers                178644        178644        178644        178644
 MEMORY| Cached               62545896      62545896      62545896      62545896
 MEMORY| Slab                  1283220       1283220       1283220       1283220
 MEMORY| SReclaimable           592912        592912        592912        592912
 MEMORY| MemLikelyFree       359389840     359389840     359389840     359389840


 GENERATE|  Preliminary Number of Bonds generated:                             0
 GENERATE|  Achieved consistency in connectivity generation.

 *******************************************************************************
 *******************************************************************************
 **                                                                           **
 **     #####                         ##              ##                      **
 **    ##   ##            ##          ##              ##                      **
 **   ##     ##                       ##            ######                    **
 **   ##     ##  ##   ##  ##   #####  ##  ##   ####   ##    #####    #####    **
 **   ##     ##  ##   ##  ##  ##      ## ##   ##      ##   ##   ##  ##   ##   **
 **   ##  ## ##  ##   ##  ##  ##      ####     ###    ##   ######   ######    **
 **    ##  ###   ##   ##  ##  ##      ## ##      ##   ##   ##       ##        **
 **     #######   #####   ##   #####  ##  ##  ####    ##    #####   ##        **
 **           ##                                                    ##        **
 **                                                                           **
 **                                                ... make the atoms dance   **
 **                                                                           **
 **            Copyright (C) by CP2K developers group (2000-2021)             **
 **                      J. Chem. Phys. 152, 194103 (2020)                    **
 **                                                                           **
 *******************************************************************************


 TOTAL NUMBERS AND MAXIMUM NUMBERS

  Total number of            - Atomic kinds:                                   2
                             - Atoms:                                          8
                             - Shell sets:                                     8
                             - Shells:                                        28
                             - Primitive Cartesian functions:                 40
                             - Cartesian basis functions:                     58
                             - Spherical basis functions:                     56

  Maximum angular momentum of- Orbital basis functions:                        2
                             - Local part of the GTH pseudopotential:          2
                             - Non-local part of the GTH pseudopotential:      0


 SCF PARAMETERS         Density guess:                                   RESTART
                        --------------------------------------------------------
                        max_scf:                                             100
                        max_scf_history:                                       0
                        max_diis:                                              4
                        --------------------------------------------------------
                        eps_scf:                                        1.00E-06
                        eps_scf_history:                                0.00E+00
                        eps_diis:                                       1.00E-01
                        eps_eigval:                                     1.00E-05
                        --------------------------------------------------------
                        level_shift [a.u.]:                                 0.00
                        --------------------------------------------------------
                        Outer loop SCF in use 
                        No variables optimised in outer loop
                        eps_scf                                         1.00E-06
                        max_scf                                                6
                        No outer loop optimization
                        step_size                                       5.00E-01

 Number of electrons:                                                         14
 Number of occupied orbitals:                                                  7
 Number of molecular orbitals:                                                 7

 Number of orbital functions:                                                 56
 Number of independent orbital functions:                                     56

 Extrapolation method: initial_guess

 *** WARNING in qs_initial_guess.F:309 :: User requested to restart the    ***
 *** wavefunction from the file named: cp2k-RESTART.wfn. This file does    ***
 *** not exist. Please check the existence of the file or change properly  ***
 *** the value of the keyword WFN_RESTART_FILE_NAME. Calculation continues ***
 *** using ATOMIC GUESS.                                                   ***



 SCF WAVEFUNCTION OPTIMIZATION

  ----------------------------------- OT ---------------------------------------
  Minimizer      : CG                  : conjugate gradient
  Preconditioner : FULL_ALL            : diagonalization, state selective
  Precond_solver : DEFAULT
  Line search    : 2PNT                : 2 energies, one gradient
  stepsize       :    0.15000000                  energy_gap     :    0.08000000
  eps_taylor     :   0.10000E-15                  max_taylor     :             4
  ----------------------------------- OT ---------------------------------------

  Step     Update method      Time    Convergence         Total energy    Change
  ------------------------------------------------------------------------------
     1 OT CG       0.15E+00    0.2     0.17457654       -14.1760068581 -1.42E+01
     2 OT LS       0.10E+00    0.1                      -14.6596174204
     3 OT CG       0.10E+00    0.2     0.07140427       -14.8080528345 -6.32E-01
     4 OT LS       0.13E+00    0.1                      -14.9302622007
     5 OT CG       0.13E+00    0.2     0.02503551       -14.9363297575 -1.28E-01
     6 OT LS       0.11E+00    0.1                      -14.9485092164
     7 OT CG       0.11E+00    0.2     0.00915125       -14.9492732171 -1.29E-02
     8 OT LS       0.12E+00    0.1                      -14.9512717666
     9 OT CG       0.12E+00    0.2     0.00257577       -14.9513122820 -2.04E-03
    10 OT LS       0.14E+00    0.1                      -14.9514916169
    11 OT CG       0.14E+00    0.2     0.00108806       -14.9514939783 -1.82E-04
    12 OT LS       0.10E+00    0.1                      -14.9515134667
    13 OT CG       0.10E+00    0.2     0.00043441       -14.9515171859 -2.32E-05
    14 OT LS       0.12E+00    0.1                      -14.9515213697
    15 OT CG       0.12E+00    0.2     0.00014687       -14.9515214423 -4.26E-06
    16 OT LS       0.14E+00    0.1                      -14.9515220104
    17 OT CG       0.14E+00    0.2     0.00005612       -14.9515220268 -5.84E-07
    18 OT LS       0.12E+00    0.1                      -14.9515221007
    19 OT CG       0.12E+00    0.2     0.00002262       -14.9515221021 -7.53E-08
    20 OT LS       0.14E+00    0.1                      -14.9515221156
    21 OT CG       0.14E+00    0.2     0.00000725       -14.9515221158 -1.37E-08
    22 OT LS       0.11E+00    0.1                      -14.9515221169
    23 OT CG       0.11E+00    0.2     0.00000366       -14.9515221170 -1.17E-09
    24 OT LS       0.11E+00    0.1                      -14.9515221172
    25 OT CG       0.11E+00    0.2     0.00000107       -14.9515221172 -2.82E-10
    26 OT LS       0.16E+00    0.1                      -14.9515221173
    27 OT CG       0.16E+00    0.2     0.00000045       -14.9515221173 -3.59E-11

  *** SCF run converged in    27 steps ***


  Electronic density on regular grids:        -14.0000000000        0.0000000000
  Core density on regular grids:               13.9999999989       -0.0000000011
  Total charge density on r-space grids:       -0.0000000010
  Total charge density g-space grids:          -0.0000000010

  Overlap energy of the core charge distribution:               0.00000128432567
  Self energy of the core charge distribution:                -35.13285960674677
  Core Hamiltonian energy:                                     11.34173353405954
  Hartree energy:                                              14.47779564589268
  Exchange-correlation energy:                                 -5.63819297481245

  Total energy:                                               -14.95152211728132

  outer SCF iter =    1 RMS gradient =   0.45E-06 energy =        -14.9515221173
  outer SCF loop converged in   1 iterations or   27 steps


 ENERGY| Total FORCE_EVAL ( QS ) energy [a.u.]:              -14.951522117284147

 -------------------------------------------------------------------------------
 -                                                                             -
 -                                DBCSR STATISTICS                             -
 -                                                                             -
 -------------------------------------------------------------------------------
 COUNTER                                    TOTAL       BLAS       SMM       ACC
 flops     7 x     7 x     7               100156       0.0%    100.0%      0.0%
 flops     5 x    13 x     7               158340       0.0%    100.0%      0.0%
 flops    13 x     5 x     7               158340       0.0%    100.0%      0.0%
 flops     7 x     7 x    13               178360       0.0%    100.0%      0.0%
 flops     7 x     7 x     5               205800       0.0%    100.0%      0.0%
 flops    13 x    13 x     7               205842       0.0%    100.0%      0.0%
 flops     5 x     5 x     7               213150       0.0%    100.0%      0.0%
 flops    26 x     7 x     7               247156       0.0%    100.0%      0.0%
 flops    26 x     7 x    13               283920       0.0%    100.0%      0.0%
 flops    10 x     7 x     7               285180       0.0%    100.0%      0.0%
 flops    26 x     7 x     5               327600       0.0%    100.0%      0.0%
 flops    10 x     7 x    13               327600       0.0%    100.0%      0.0%
 flops    10 x     7 x     5               378000       0.0%    100.0%      0.0%
 flops    13 x     7 x    13               473200       0.0%    100.0%      0.0%
 flops    13 x     7 x     5               546000       0.0%    100.0%      0.0%
 flops     5 x     7 x    13               546000       0.0%    100.0%      0.0%
 flops     5 x     7 x     5               630000       0.0%    100.0%      0.0%
 flops inhomo. stacks                           0       0.0%      0.0%      0.0%
 flops total                         5.264644E+06       0.0%    100.0%      0.0%
 flops max/rank                      2.568034E+06       0.0%    100.0%      0.0%
 matmuls inhomo. stacks                         0       0.0%      0.0%      0.0%
 matmuls total                               6298       0.0%    100.0%      0.0%
 number of processed stacks                  4350       0.0%    100.0%      0.0%
 average stack size                                     0.0       1.4       0.0
 marketing flops                     5.807672E+06
 -------------------------------------------------------------------------------
 # multiplications                            423
 max memory usage/rank             178.257920E+06
 # max total images/rank                        3
 # max 3D layers                                1
 # MPI messages exchanged                  192888
 MPI messages size (bytes):
  total size                        15.364440E+06
  min size                           0.000000E+00
  max size                           2.704000E+03
  average size                      79.654724E+00
 MPI breakdown and total messages size (bytes):
             size <=      128              169187                        0
       128 < size <=     8192               23701                 15364440
      8192 < size <=    32768                   0                        0
     32768 < size <=   131072                   0                        0
    131072 < size <=  4194304                   0                        0
   4194304 < size <= 16777216                   0                        0
  16777216 < size                               0                        0
 -------------------------------------------------------------------------------

 *** WARNING in dbcsr_mm.F:294 :: Using a non-square number of MPI ranks ***
 *** might lead to poor performance. Used ranks: 24 Suggested: 25 49     ***

 -------------------------------------------------------------------------------
 -                                                                             -
 -                      DBCSR MESSAGE PASSING PERFORMANCE                      -
 -                                                                             -
 -------------------------------------------------------------------------------
 ROUTINE             CALLS      AVE VOLUME [Bytes]
 MP_Bcast               18                     12.
 MP_Allreduce         2180                      8.
 MP_Alltoall          1766                   1398.
 MP_ISend            17762                    164.
 MP_IRecv            17762                    110.
 -------------------------------------------------------------------------------

 -------------------------------------------------------------------------------
 -                                                                             -
 -                                GRID STATISTICS                              -
 -                                                                             -
 -------------------------------------------------------------------------------
 LP    KERNEL             BACKEND                              COUNT     PERCENT
 2     collocate ortho    REF                                  19152      38.20%
 3     collocate ortho    REF                                  10612      21.17%
 2     integrate ortho    REF                                   9576      19.10%
 3     integrate ortho    REF                                   5306      10.58%
 4     collocate ortho    REF                                   2632       5.25%
 4     integrate ortho    REF                                   1316       2.62%
 5     integrate ortho    REF                                    684       1.36%
 6     integrate ortho    REF                                    379       0.76%
 0     collocate general  REF                                    192       0.38%
 3     integrate general  REF                                    192       0.38%
 7     integrate ortho    REF                                     94       0.19%
 -------------------------------------------------------------------------------

 MEMORY| Estimated peak process memory [MiB]                                 171

 -------------------------------------------------------------------------------
 -                                                                             -
 -                         MESSAGE PASSING PERFORMANCE                         -
 -                                                                             -
 -------------------------------------------------------------------------------

 ROUTINE             CALLS      AVE VOLUME [Bytes]
 MP_Group                4
 MP_Bcast              521                 705730.
 MP_Allreduce         1610                    205.
 MP_Sync                64
 MP_Alltoall           416                2970387.
 MP_ISendRecv         2967                  53808.
 MP_Wait              4497
 MP_comm_split          30
 MP_ISend             1350                 171659.
 MP_IRecv             1350                 171408.
 MP_Recv                 6                    896.
 -------------------------------------------------------------------------------


 -------------------------------------------------------------------------------
 -                                                                             -
 -                           R E F E R E N C E S                               -
 -                                                                             -
 -------------------------------------------------------------------------------
 
 CP2K version 8.2, the CP2K developers group (2021).
 CP2K is freely available from https://www.cp2k.org/ .

 Kuehne,Thomas D.; Iannuzzi,Marcella; Del Ben,Mauro;
 Rybkin,Vladimir V.; Seewald,Patrick; Stein,Frederick; Laino,Teodoro;
 Khaliullin,Rustam Z.; Schuett,Ole; Schiffmann,Florian; Golze,Dorothea;
 Wilhelm,Jan; Chulkov,Sergey; Bani-Hashemian,Mohammad Hossein;
 Weber,Valery; Borstnik,Urban; Taillefumier,Mathieu;
 Jakobovits,Alice Shoshana; Lazzaro,Alfio; Pabst,Hans; Mueller,Tiziano;
 Schade,Robert; Guidon,Manuel; Andermatt,Samuel; Holmberg,Nico;
 Schenter,Gregory K.; Hehn,Anna; Bussy,Augustin; Belleflamme,Fabian;
 Tabacchi,Gloria; Gloess,Andreas; Lass,Michael; Bethune,Iain;
 Mundy,Christopher J.; Plessl,Christian; Watkins,Matt;
 VandeVondele,Joost; Krack,Matthias; Hutter,Juerg. 
 The Journal of Chemical Physics, 152 (19), (2020). 
 CP2K: An electronic structure and molecular dynamics software package -
 Quickstep: Efficient and accurate electronic structure calculations.
 https://doi.org/10.1063/5.0007045

 Schuett, Ole; Messmer, Peter; Hutter, Juerg; VandeVondele, Joost. 
 Electronic Structure Calculations on Graphics Processing Units, John
 Wiley & Sons, Ltd, 173-190 (2016). 
 GPU-Accelerated Sparse Matrix-Matrix Multiplication for
 Linear Scaling Density Functional Theory.
 https://doi.org/10.1002/9781118670712.ch8

 Heinecke, A; Henry, G; Hutchinson, M; Pabst, H. 
 Proceedings of Intl. Supercomputing Conference, 981-991 (2016). 
 LIBXSMM: Accelerating Small Matrix Multiplications
 by Runtime Code Generation.
 https://doi.org/10.1109/SC.2016.83

 Borstnik, U; VandeVondele, J; Weber, V; Hutter, J. 
 PARALLEL COMPUTING, 40 (5-6), 47-58 (2014). 
 Sparse matrix multiplication: The distributed block-compressed sparse
 row library.
 https://doi.org/10.1016/j.parco.2014.03.012

 Hutter, J; Iannuzzi, M; Schiffmann, F; VandeVondele, J. 
 WIREs Comput Mol Sci., 4 (1), 15-25 (2014). 
 CP2K: atomistic simulations of condensed matter systems.
 https://doi.org/10.1002/wcms.1159

 Marek, A; Blum, V; Johanni, R; Havu, V; Lang, B; Auckenthaler, T;
 Heinecke, A; Bungartz, H; Lederer, H. 
 Journal of Physics: Condensed Matter, 26 (21), (2014). 
 The ELPA library: scalable parallel eigenvalue solutions for
 electronic structure
 theory and computational science.
 https://doi.org/10.1088/0953-8984/26/21/213201

 VandeVondele, J; Hutter, J. 
 JOURNAL OF CHEMICAL PHYSICS, 127 (11), 114105 (2007). 
 Gaussian basis sets for accurate calculations on molecular systems in
 gas and condensed phases.
 https://doi.org/10.1063/1.2770708

 Krack, M. 
 THEORETICAL CHEMISTRY ACCOUNTS, 114 (1-3), 145-152 (2005). 
 Pseudopotentials for H to Kr optimized for gradient-corrected
 exchange-correlation functionals.
 https://doi.org/10.1007/s00214-005-0655-y

 VandeVondele, J; Krack, M; Mohamed, F; Parrinello, M; Chassaing, T;
 Hutter, J. COMPUTER PHYSICS COMMUNICATIONS, 167 (2), 103-128 (2005). 
 QUICKSTEP: Fast and accurate density functional calculations using a
 mixed Gaussian and plane waves approach.
 https://doi.org/10.1016/j.cpc.2004.12.014

 Frigo, M; Johnson, SG. 
 PROCEEDINGS OF THE IEEE, 93 (2), 216-231 (2005). 
 The design and implementation of FFTW3.
 https://doi.org/10.1109/JPROC.2004.840301

 VandeVondele, J; Hutter, J. 
 JOURNAL OF CHEMICAL PHYSICS, 118 (10), 4365-4369 (2003). 
 An efficient orbital transformation method for electronic structure
 calculations.
 https://doi.org/10.1063/1.1543154

 Hartwigsen, C; Goedecker, S; Hutter, J. 
 PHYSICAL REVIEW B, 58 (7), 3641-3662 (1998). 
 Relativistic separable dual-space Gaussian pseudopotentials from H to Rn.
 https://doi.org/10.1103/PhysRevB.58.3641

 Lippert, G; Hutter, J; Parrinello, M. 
 MOLECULAR PHYSICS, 92 (3), 477-487 (1997). 
 A hybrid Gaussian and plane wave density functional scheme.
 https://doi.org/10.1080/002689797170220

 Perdew, JP; Burke, K; Ernzerhof, M. 
 PHYSICAL REVIEW LETTERS, 77 (18), 3865-3868 (1996). 
 Generalized gradient approximation made simple.
 https://doi.org/10.1103/PhysRevLett.77.3865

 Goedecker, S; Teter, M; Hutter, J. 
 PHYSICAL REVIEW B, 54 (3), 1703-1710 (1996). 
 Separable dual-space Gaussian pseudopotentials.
 https://doi.org/10.1103/PhysRevB.54.1703


 -------------------------------------------------------------------------------
 -                                                                             -
 -                                T I M I N G                                  -
 -                                                                             -
 -------------------------------------------------------------------------------
 SUBROUTINE                       CALLS  ASD         SELF TIME        TOTAL TIME
                                MAXIMUM       AVERAGE  MAXIMUM  AVERAGE  MAXIMUM
 CP2K                                 1  1.0    0.007    0.014    5.272    5.274
 qs_forces                            1  2.0    0.000    0.000    5.161    5.161
 qs_energies                          1  3.0    0.000    0.000    4.953    4.953
 scf_env_do_scf                       1  4.0    0.000    0.000    4.856    4.856
 scf_env_do_scf_inner_loop           27  5.0    0.001    0.003    4.684    4.685
 rebuild_ks_matrix                   28  6.9    0.000    0.000    3.331    3.332
 qs_ks_build_kohn_sham_matrix        28  7.9    0.003    0.003    3.331    3.332
 qs_ks_update_qs_env                 28  6.0    0.000    0.000    3.132    3.132
 pw_transfer                        416 10.4    0.019    0.020    2.400    2.534
 qs_vxc_create                       28  8.9    0.000    0.000    2.515    2.520
 fft_wrap_pw1pw2                    360 11.4    0.003    0.003    2.364    2.499
 fft_wrap_pw1pw2_200                231 12.7    0.140    0.149    2.258    2.394
 fft3d_ps                           360 13.4    1.078    1.252    1.914    2.047
 xc_rho_set_and_dset_create          28 10.9    0.012    0.012    1.659    1.891
 xc_vxc_pw_create                    15  9.8    0.029    0.034    1.624    1.629
 qs_rho_update_rho                   28  6.0    0.000    0.000    1.293    1.294
 calculate_rho_elec                  28  7.0    0.016    0.018    1.293    1.294
 density_rs2pw                       28  8.0    0.001    0.001    1.074    1.131
 xc_functional_eval                  28 11.9    0.000    0.000    0.737    0.960
 pbe_lda_eval                        28 12.9    0.737    0.960    0.737    0.960
 xc_exc_calc                         13 10.0    0.006    0.007    0.891    0.891
 mp_alltoall_z22v                   360 15.4    0.666    0.838    0.666    0.838
 rs_pw_transfer                     174  9.9    0.002    0.002    0.729    0.761
 yz_to_x                            173 13.7    0.053    0.060    0.390    0.546
 sum_up_and_integrate                15  8.8    0.003    0.004    0.538    0.538
 integrate_v_rspace                  15  9.8    0.000    0.000    0.535    0.536
 x_to_yz                            187 15.1    0.113    0.131    0.441    0.516
 qs_scf_new_mos                      27  6.0    0.000    0.000    0.436    0.437
 qs_scf_loop_do_ot                   27  7.0    0.000    0.000    0.436    0.437
 potential_pw2rs                     15 10.8    0.001    0.001    0.411    0.412
 ot_scf_mini                         27  8.0    0.000    0.000    0.411    0.411
 rs_pw_transfer_RS2PW_200            29  9.9    0.156    0.170    0.345    0.377
 dbcsr_multiply_generic             423 10.8    0.011    0.013    0.363    0.368
 mp_sum_d                           904  7.0    0.192    0.324    0.192    0.324
 grid_collocate_task_list            28  8.0    0.166    0.322    0.166    0.322
 mp_waitany                        1350 11.8    0.217    0.255    0.217    0.255
 qs_ks_update_qs_env_forces           1  3.0    0.000    0.000    0.201    0.201
 ot_mini                             27  9.0    0.000    0.000    0.186    0.186
 mp_waitall_1                     26835 14.7    0.163    0.186    0.163    0.186
 init_scf_loop                        1  5.0    0.000    0.000    0.170    0.170
 qs_ot_get_p                         28  8.9    0.000    0.000    0.161    0.162
 pw_scatter_p                       187 14.1    0.156    0.160    0.156    0.160
 qs_ot_get_derivative                14 10.0    0.000    0.000    0.156    0.156
 rs_pw_transfer_PW2RS_200            16 12.5    0.087    0.091    0.150    0.155
 pw_gather_p                        173 12.7    0.143    0.150    0.143    0.150
 multiply_cannon                    423 11.8    0.022    0.024    0.137    0.145
 make_m2s                           846 11.8    0.009    0.010    0.135    0.140
 mp_alltoall_d11v                   476 12.8    0.110    0.128    0.110    0.128
 grid_integrate_task_list            15 10.8    0.030    0.121    0.030    0.121
 qs_ot_p2m_diag                      27 10.0    0.001    0.001    0.113    0.114
 qs_ot_get_derivative_diag           13 11.0    0.000    0.000    0.113    0.114
 rs_gather_matrices                  15 10.8    0.000    0.000    0.094    0.111
 -------------------------------------------------------------------------------

 The number of warnings for this run is : 2
 
 -------------------------------------------------------------------------------
  **** **** ******  **  PROGRAM ENDED AT                 2021-10-27 14:09:34.619
 ***** ** ***  *** **   PROGRAM RAN ON                                    node10
 **    ****   ******    PROGRAM RAN BY                                   lujunbo
 ***** **    ** ** **   PROGRAM PROCESS ID                                281821
  **** **  *******  **  PROGRAM STOPPED IN /home/lujunbo/WORK/deepmd/c2h6/mtd/tr
                                           ain_4_sys/cp2k_md/sys_4/data/task_174
                                           4
