 DBCSR| CPU Multiplication driver                                           XSMM
 DBCSR| Multrec recursion limit                                              512
 DBCSR| Multiplication stack size                                           1000
 DBCSR| Maximum elements for images                                    UNLIMITED
 DBCSR| Multiplicative factor virtual images                                   1
 DBCSR| Use multiplication densification                                       T
 DBCSR| Multiplication size stacks                                             3
 DBCSR| Use memory pool for CPU allocation                                     F
 DBCSR| Number of 3D layers                                               SINGLE
 DBCSR| Use MPI memory allocation                                              F
 DBCSR| Use RMA algorithm                                                      F
 DBCSR| Use Communication thread                                               T
 DBCSR| Communication thread load                                             87
 DBCSR| MPI: My node id                                                        0
 DBCSR| MPI: Number of nodes                                                  24
 DBCSR| OMP: Current number of threads                                         1
 DBCSR| OMP: Max number of threads                                             1
 DBCSR| Split modifier for TAS multiplication algorithm                  1.0E+00


  **** **** ******  **  PROGRAM STARTED AT               2021-10-25 09:47:54.429
 ***** ** ***  *** **   PROGRAM STARTED ON                                 node2
 **    ****   ******    PROGRAM STARTED BY                               lujunbo
 ***** **    ** ** **   PROGRAM PROCESS ID                                663727
  **** **  *******  **  PROGRAM STARTED IN /home/lujunbo/WORK/deepmd/c2h6/mtd/tr
                                           ain_4_sys/cp2k_md/sys_2

 CP2K| version string:                                          CP2K version 8.2
 CP2K| source code revision number:                                  git:310b7ab
 CP2K| cp2kflags: omp libint fftw3 libxc elpa parallel mpi3 scalapack xsmm plume
 CP2K|            d2 spglib mkl libvori libbqb
 CP2K| is freely available from                            https://www.cp2k.org/
 CP2K| Program compiled at                          Tue Jun  1 15:18:23 CST 2021
 CP2K| Program compiled on                                                   mgr
 CP2K| Program compiled for                                                local
 CP2K| Data directory path                       /home/lujunbo/bin/cp2k-8.2/data
 CP2K| Input file name                                             cp2k-aimd.inp

 GLOBAL| Force Environment number                                              1
 GLOBAL| Basis set file name            /home/lujunbo/bin/cp2k-8.2/data/BASIS_MO
 GLOBAL| Potential file name            /home/lujunbo/bin/cp2k-8.2/data/POTENTIA
 GLOBAL| MM Potential file name                                     MM_POTENTIAL
 GLOBAL| Coordinate file name                                           init.xyz
 GLOBAL| Method name                                                        CP2K
 GLOBAL| Project name                                                       test
 GLOBAL| Run type                                                             MD
 GLOBAL| FFT library                                                       FFTW3
 GLOBAL| Diagonalization library                                            ELPA
 GLOBAL| Minimum number of eigenvectors for ELPA usage                        16
 GLOBAL| Orthonormality check for eigenvectors                          DISABLED
 GLOBAL| Matrix multiplication library                                    SCALAP
 GLOBAL| All-to-all communication in single precision                          F
 GLOBAL| FFTs using library dependent lengths                                  F
 GLOBAL| Grid backend                                                       AUTO
 GLOBAL| Global print level                                                  LOW
 GLOBAL| MPI I/O enabled                                                       T
 GLOBAL| Total number of message passing processes                            24
 GLOBAL| Number of threads for this process                                    1
 GLOBAL| This output is from process                                           0
 GLOBAL| CPU model name             Intel(R) Xeon(R) Platinum 9242 CPU @ 2.30GHz
 GLOBAL| CPUID                                                              1003

 MEMORY| system memory details [Kb]
 MEMORY|                        rank 0           min           max       average
 MEMORY| MemTotal            394609400     394609400     394609400     394609400
 MEMORY| MemFree             126920828     126920828     126920828     126920828
 MEMORY| Buffers                164268        164268        164268        164268
 MEMORY| Cached              240925104     240925104     240925104     240925104
 MEMORY| Slab                  3132564       3132564       3132564       3132564
 MEMORY| SReclaimable          2426836       2426836       2426836       2426836
 MEMORY| MemLikelyFree       370437036     370437036     370437036     370437036


 GENERATE|  Preliminary Number of Bonds generated:                             0
 GENERATE|  Achieved consistency in connectivity generation.

 *******************************************************************************
 *******************************************************************************
 **                                                                           **
 **     #####                         ##              ##                      **
 **    ##   ##            ##          ##              ##                      **
 **   ##     ##                       ##            ######                    **
 **   ##     ##  ##   ##  ##   #####  ##  ##   ####   ##    #####    #####    **
 **   ##     ##  ##   ##  ##  ##      ## ##   ##      ##   ##   ##  ##   ##   **
 **   ##  ## ##  ##   ##  ##  ##      ####     ###    ##   ######   ######    **
 **    ##  ###   ##   ##  ##  ##      ## ##      ##   ##   ##       ##        **
 **     #######   #####   ##   #####  ##  ##  ####    ##    #####   ##        **
 **           ##                                                    ##        **
 **                                                                           **
 **                                                ... make the atoms dance   **
 **                                                                           **
 **            Copyright (C) by CP2K developers group (2000-2021)             **
 **                      J. Chem. Phys. 152, 194103 (2020)                    **
 **                                                                           **
 *******************************************************************************


 TOTAL NUMBERS AND MAXIMUM NUMBERS

  Total number of            - Atomic kinds:                                   2
                             - Atoms:                                          8
                             - Shell sets:                                     8
                             - Shells:                                        28
                             - Primitive Cartesian functions:                 40
                             - Cartesian basis functions:                     58
                             - Spherical basis functions:                     56

  Maximum angular momentum of- Orbital basis functions:                        2
                             - Local part of the GTH pseudopotential:          2
                             - Non-local part of the GTH pseudopotential:      0


 SCF PARAMETERS         Density guess:                                   RESTART
                        --------------------------------------------------------
                        max_scf:                                             100
                        max_scf_history:                                       0
                        max_diis:                                              4
                        --------------------------------------------------------
                        eps_scf:                                        1.00E-06
                        eps_scf_history:                                0.00E+00
                        eps_diis:                                       1.00E-01
                        eps_eigval:                                     1.00E-05
                        --------------------------------------------------------
                        level_shift [a.u.]:                                 0.00
                        --------------------------------------------------------
                        Outer loop SCF in use 
                        No variables optimised in outer loop
                        eps_scf                                         1.00E-06
                        max_scf                                                6
                        No outer loop optimization
                        step_size                                       5.00E-01

 MD_PAR| Molecular dynamics protocol (MD input parameters)
 MD_PAR| Ensemble type                                                       NVT
 MD_PAR| Number of time steps                                               1000
 MD_PAR| Time step [fs]                                                 0.500000
 MD_PAR| Temperature [K]                                               50.000000
 MD_PAR| Temperature tolerance [K]                                      0.000000
 MD_PAR| Print MD information every                                    1 step(s)
 MD_PAR| File type   Print frequency [steps]                          File names
 MD_PAR| Coordinates          1                                   test-pos-1.xyz
 MD_PAR| Velocities           1                                   test-vel-1.xyz
 MD_PAR| Energies             1                                      test-1.ener
 MD_PAR| Dump                 5                                   test-1.restart

 ROT| Rotational analysis information
 ROT| Principal axes and moments of inertia [a.u.]
 ROT|                           1                   2                   3
 ROT| Eigenvalues      4.29812258015E+04   1.61122255748E+05   1.61124761554E+05
 ROT|      x             -0.999999999983     -0.000001472406     -0.000005631622
 ROT|      y              0.000005507261      0.073979837711     -0.997259737271
 ROT|      z              0.000001884998     -0.997259737285     -0.073979837702
 ROT| Number of rotovibrational vectors                                        6

 DOF| Calculation of degrees of freedom
 DOF| Number of atoms                                                          8
 DOF| Number of intramolecular constraints                                     0
 DOF| Number of intermolecular constraints                                     0
 DOF| Invariants (translations + rotations)                                    3
 DOF| Degrees of freedom                                                      21

 DOF| Restraints information
 DOF| Number of intramolecular restraints                                      0
 DOF| Number of intermolecular restraints                                      0

 THERMOSTAT| Thermostat information for PARTICLES
 THERMOSTAT| Type of thermostat                               Nose-Hoover-Chains
 THERMOSTAT| Nose-Hoover-Chain length                                          3
 THERMOSTAT| Nose-Hoover-Chain time constant [fs]                      50.000000
 THERMOSTAT| Order of Yoshida integrator                                       3
 THERMOSTAT| Number of multiple time steps                                     2
 THERMOSTAT| Initial potential energy                         0.000000000000E+00
 THERMOSTAT| Initial kinetic energy                           0.791703835822E-04
 THERMOSTAT| End of thermostat information for PARTICLES

 MD_VEL| Velocities initialization
 MD_VEL| Initial temperature [K]                                       50.000000
 MD_VEL| COM velocity             0.0000000000     0.0000000000    -0.0000000000

 Number of electrons:                                                         14
 Number of occupied orbitals:                                                  7
 Number of molecular orbitals:                                                 7

 Number of orbital functions:                                                 56
 Number of independent orbital functions:                                     56

 Extrapolation method: initial_guess

 *** WARNING in qs_initial_guess.F:309 :: User requested to restart the    ***
 *** wavefunction from the file named: ./cp2k-RESTART.wfn. This file does  ***
 *** not exist. Please check the existence of the file or change properly  ***
 *** the value of the keyword WFN_RESTART_FILE_NAME. Calculation continues ***
 *** using ATOMIC GUESS.                                                   ***



 SCF WAVEFUNCTION OPTIMIZATION

  ----------------------------------- OT ---------------------------------------
  Minimizer      : CG                  : conjugate gradient
  Preconditioner : FULL_ALL            : diagonalization, state selective
  Precond_solver : DEFAULT
  Line search    : 2PNT                : 2 energies, one gradient
  stepsize       :    0.15000000                  energy_gap     :    0.08000000
  eps_taylor     :   0.10000E-15                  max_taylor     :             4
  ----------------------------------- OT ---------------------------------------

  Step     Update method      Time    Convergence         Total energy    Change
  ------------------------------------------------------------------------------
     1 OT CG       0.15E+00    1.4     0.25519006       -13.6943106735 -1.37E+01
     2 OT LS       0.71E-01    0.2                      -13.4909477292
     3 OT CG       0.71E-01    0.3     0.09705455       -14.7534917317 -1.06E+00
     4 OT LS       0.95E-01    0.1                      -14.8876583448
     5 OT CG       0.95E-01    0.2     0.06694720       -14.8957715923 -1.42E-01
     6 OT LS       0.44E-01    0.1                      -14.8845221334
     7 OT CG       0.44E-01    0.2     0.02629984       -14.9341846833 -3.84E-02
     8 OT LS       0.91E-01    0.1                      -14.9431744194
     9 OT CG       0.91E-01    0.2     0.01434828       -14.9462990487 -1.21E-02
    10 OT LS       0.86E-01    0.1                      -14.9497245119
    11 OT CG       0.86E-01    0.2     0.00735520       -14.9497366558 -3.44E-03
    12 OT LS       0.74E-01    0.1                      -14.9504960961
    13 OT CG       0.74E-01    0.2     0.00394732       -14.9505175297 -7.81E-04
    14 OT LS       0.56E-01    0.1                      -14.9506725900
    15 OT CG       0.56E-01    0.2     0.00163143       -14.9506892461 -1.72E-04
    16 OT LS       0.90E-01    0.1                      -14.9507295969
    17 OT CG       0.90E-01    0.2     0.00080172       -14.9507362591 -4.70E-05
    18 OT LS       0.92E-01    0.1                      -14.9507478511
    19 OT CG       0.92E-01    0.2     0.00048822       -14.9507478561 -1.16E-05
    20 OT LS       0.60E-01    0.1                      -14.9507498079
    21 OT CG       0.60E-01    0.2     0.00026213       -14.9507506376 -2.78E-06
    22 OT LS       0.85E-01    0.1                      -14.9507516789
    23 OT CG       0.85E-01    0.2     0.00009546       -14.9507517810 -1.14E-06
    24 OT LS       0.99E-01    0.1                      -14.9507519537
    25 OT CG       0.99E-01    0.2     0.00006787       -14.9507519571 -1.76E-07
    26 OT LS       0.65E-01    0.1                      -14.9507520001
    27 OT CG       0.65E-01    0.2     0.00003472       -14.9507520158 -5.87E-08
    28 OT LS       0.69E-01    0.1                      -14.9507520320
    29 OT CG       0.69E-01    0.2     0.00001524       -14.9507520321 -1.63E-08
    30 OT LS       0.95E-01    0.1                      -14.9507520361
    31 OT CG       0.95E-01    0.2     0.00000767       -14.9507520364 -4.31E-09
    32 OT LS       0.72E-01    0.1                      -14.9507520371
    33 OT CG       0.72E-01    0.2     0.00000462       -14.9507520372 -8.28E-10
    34 OT LS       0.64E-01    0.1                      -14.9507520375
    35 OT CG       0.64E-01    0.2     0.00000219       -14.9507520375 -2.69E-10
    36 OT LS       0.98E-01    0.1                      -14.9507520376
    37 OT CG       0.98E-01    0.2     0.00000102       -14.9507520376 -9.21E-11
    38 OT LS       0.79E-01    0.1                      -14.9507520376
    39 OT CG       0.79E-01    0.2     0.00000062       -14.9507520376 -1.63E-11

  *** SCF run converged in    39 steps ***


  Electronic density on regular grids:        -14.0000000000        0.0000000000
  Core density on regular grids:               13.9999999989       -0.0000000011
  Total charge density on r-space grids:       -0.0000000010
  Total charge density g-space grids:          -0.0000000010

  Overlap energy of the core charge distribution:               0.00000091436038
  Self energy of the core charge distribution:                -35.13285960674677
  Core Hamiltonian energy:                                     11.33799082836923
  Hartree energy:                                              14.47892398591922
  Exchange-correlation energy:                                 -5.63480815948010

  Total energy:                                               -14.95075203757804

  outer SCF iter =    1 RMS gradient =   0.62E-06 energy =        -14.9507520376
  outer SCF loop converged in   1 iterations or   39 steps


 ENERGY| Total FORCE_EVAL ( QS ) energy [a.u.]:              -14.950752037582401

 MD_INI| MD initialization
 MD_INI| Potential energy [hartree]                          -0.149507520376E+02
 MD_INI| Kinetic energy [hartree]                             0.166257805523E-02
 MD_INI| Temperature [K]                                               50.000000
 MD_INI| Cell volume [bohr^3]                                 6.748334583090E+03
 MD_INI| Cell volume [ang^3]                                  1.000000000000E+03
 MD_INI| Cell lengths [bohr]      1.88972613E+01  1.88972613E+01  1.88972613E+01
 MD_INI| Cell lengths [ang]       1.00000000E+01  1.00000000E+01  1.00000000E+01
 MD_INI| Cell angles [deg]        9.00000000E+01  9.00000000E+01  9.00000000E+01

 Number of electrons:                                                         14
 Number of occupied orbitals:                                                  7
 Number of molecular orbitals:                                                 7

 Number of orbital functions:                                                 56
 Number of independent orbital functions:                                     56

 Extrapolation method: ASPC


 SCF WAVEFUNCTION OPTIMIZATION

  ----------------------------------- OT ---------------------------------------
  Minimizer      : CG                  : conjugate gradient
  Preconditioner : FULL_ALL            : diagonalization, state selective
  Precond_solver : DEFAULT
  Line search    : 2PNT                : 2 energies, one gradient
  stepsize       :    0.15000000                  energy_gap     :    0.08000000
  eps_taylor     :   0.10000E-15                  max_taylor     :             4
  ----------------------------------- OT ---------------------------------------

  Step     Update method      Time    Convergence         Total energy    Change
  ------------------------------------------------------------------------------
     1 OT CG       0.15E+00    0.2     0.00059038       -14.9508416548 -1.50E+01
     2 OT LS       0.19E+00    0.1                      -14.9508540722
     3 OT CG       0.19E+00    0.2     0.00026366       -14.9508546553 -1.30E-05
     4 OT LS       0.13E+00    0.1                      -14.9508560332
     5 OT CG       0.13E+00    0.2     0.00001994       -14.9508564209 -1.77E-06
     6 OT LS       0.20E+00    0.1                      -14.9508564347
     7 OT CG       0.20E+00    0.2     0.00000385       -14.9508564368 -1.59E-08
     8 OT LS       0.15E+00    0.1                      -14.9508564372
     9 OT CG       0.15E+00    0.2     0.00000074       -14.9508564372 -4.48E-10

  *** SCF run converged in     9 steps ***


  Electronic density on regular grids:        -14.0000000000        0.0000000000
  Core density on regular grids:               13.9999999989       -0.0000000011
  Total charge density on r-space grids:       -0.0000000010
  Total charge density g-space grids:          -0.0000000010

  Overlap energy of the core charge distribution:               0.00000097348702
  Self energy of the core charge distribution:                -35.13285960674677
  Core Hamiltonian energy:                                     11.35236491154853
  Hartree energy:                                              14.46904348495458
  Exchange-correlation energy:                                 -5.63940620044800

  Total energy:                                               -14.95085643720463

  outer SCF iter =    1 RMS gradient =   0.74E-06 energy =        -14.9508564372
  outer SCF loop converged in   1 iterations or    9 steps


 ENERGY| Total FORCE_EVAL ( QS ) energy [a.u.]:              -14.950856437220459

 MD| ***************************************************************************
 MD| Step number                                                               1
 MD| Time [fs]                                                          0.500000
 MD| Conserved quantity [hartree]                            -0.149490149119E+02
 MD| ---------------------------------------------------------------------------
 MD|                                          Instantaneous             Averages
 MD| CPU time per MD step [s]                     11.602193            11.602193
 MD| Energy drift per atom [K]          -0.182466913916E+00   0.000000000000E+00
 MD| Potential energy [hartree]         -0.149508564372E+02  -0.149508564372E+02
 MD| Kinetic energy [hartree]            0.175495316535E-02   0.175495316535E-02
 MD| Temperature [K]                              52.778068            52.778068
 MD| ***************************************************************************

 Number of electrons:                                                         14
 Number of occupied orbitals:                                                  7
 Number of molecular orbitals:                                                 7

 Number of orbital functions:                                                 56
 Number of independent orbital functions:                                     56

 Extrapolation method: ASPC


 SCF WAVEFUNCTION OPTIMIZATION

  ----------------------------------- OT ---------------------------------------
  Minimizer      : CG                  : conjugate gradient
  Preconditioner : FULL_ALL            : diagonalization, state selective
  Precond_solver : DEFAULT
  Line search    : 2PNT                : 2 energies, one gradient
  stepsize       :    0.15000000                  energy_gap     :    0.08000000
  eps_taylor     :   0.10000E-15                  max_taylor     :             4
  ----------------------------------- OT ---------------------------------------

  Step     Update method      Time    Convergence         Total energy    Change
  ------------------------------------------------------------------------------
     1 OT CG       0.15E+00    0.2     0.00021130       -14.9510590937 -1.50E+01
     2 OT LS       0.16E+00    0.1                      -14.9510604615
     3 OT CG       0.16E+00    0.2     0.00008816       -14.9510604639 -1.37E-06
     4 OT LS       0.15E+00    0.1                      -14.9510606946
     5 OT CG       0.15E+00    0.2     0.00001410       -14.9510606949 -2.31E-07
     6 OT LS       0.17E+00    0.1                      -14.9510607015
     7 OT CG       0.17E+00    0.2     0.00000193       -14.9510607017 -6.80E-09
     8 OT LS       0.21E+00    0.1                      -14.9510607018
     9 OT CG       0.21E+00    0.3     0.00000010       -14.9510607018 -1.55E-10

  *** SCF run converged in     9 steps ***


  Electronic density on regular grids:        -14.0000000000        0.0000000000
  Core density on regular grids:               13.9999999989       -0.0000000011
  Total charge density on r-space grids:       -0.0000000010
  Total charge density g-space grids:          -0.0000000010

  Overlap energy of the core charge distribution:               0.00000107755784
  Self energy of the core charge distribution:                -35.13285960674677
  Core Hamiltonian energy:                                     11.37359193980538
  Hartree energy:                                              14.45445082610294
  Exchange-correlation energy:                                 -5.64624493853841

  Total energy:                                               -14.95106070181901

  outer SCF iter =    1 RMS gradient =   0.10E-06 energy =        -14.9510607018
  outer SCF loop converged in   1 iterations or    9 steps


 ENERGY| Total FORCE_EVAL ( QS ) energy [a.u.]:              -14.951060701819486

 MD| ***************************************************************************
 MD| Step number                                                               2
 MD| Time [fs]                                                          1.000000
 MD| Conserved quantity [hartree]                            -0.149490213876E+02
 MD| ---------------------------------------------------------------------------
 MD|                                          Instantaneous             Averages
 MD| CPU time per MD step [s]                      1.988182             6.795187
 MD| Energy drift per atom [K]          -0.438077225672E+00  -0.219038612836E+00
 MD| Potential energy [hartree]         -0.149510607018E+02  -0.149509585695E+02
 MD| Kinetic energy [hartree]            0.194469498442E-02   0.184982407488E-02
 MD| Temperature [K]                              58.484321            55.631195
 MD| ***************************************************************************

 Number of electrons:                                                         14
 Number of occupied orbitals:                                                  7
 Number of molecular orbitals:                                                 7

 Number of orbital functions:                                                 56
 Number of independent orbital functions:                                     56

 Extrapolation method: ASPC


 SCF WAVEFUNCTION OPTIMIZATION

  ----------------------------------- OT ---------------------------------------
  Minimizer      : CG                  : conjugate gradient
  Preconditioner : FULL_ALL            : diagonalization, state selective
  Precond_solver : DEFAULT
  Line search    : 2PNT                : 2 energies, one gradient
  stepsize       :    0.15000000                  energy_gap     :    0.08000000
  eps_taylor     :   0.10000E-15                  max_taylor     :             4
  ----------------------------------- OT ---------------------------------------

  Step     Update method      Time    Convergence         Total energy    Change
  ------------------------------------------------------------------------------
     1 OT CG       0.15E+00    0.2     0.00007208       -14.9512642682 -1.50E+01
     2 OT LS       0.17E+00    0.1                      -14.9512644406
     3 OT CG       0.17E+00    0.2     0.00003000       -14.9512644435 -1.75E-07
     4 OT LS       0.14E+00    0.1                      -14.9512644670
     5 OT CG       0.14E+00    0.2     0.00000513       -14.9512644683 -2.48E-08
     6 OT LS       0.17E+00    0.1                      -14.9512644691
     7 OT CG       0.17E+00    0.3     0.00000071       -14.9512644692 -8.87E-10

  *** SCF run converged in     7 steps ***


  Electronic density on regular grids:        -14.0000000000        0.0000000000
  Core density on regular grids:               13.9999999989       -0.0000000011
  Total charge density on r-space grids:       -0.0000000010
  Total charge density g-space grids:          -0.0000000010

  Overlap energy of the core charge distribution:               0.00000122938327
  Self energy of the core charge distribution:                -35.13285960674677
  Core Hamiltonian energy:                                     11.40038064441761
  Hartree energy:                                              14.43609841704036
  Exchange-correlation energy:                                 -5.65488515324568

  Total energy:                                               -14.95126446915120

  outer SCF iter =    1 RMS gradient =   0.71E-06 energy =        -14.9512644692
  outer SCF loop converged in   1 iterations or    7 steps


 ENERGY| Total FORCE_EVAL ( QS ) energy [a.u.]:              -14.951264469170765

 MD| ***************************************************************************
 MD| Step number                                                               3
 MD| Time [fs]                                                          1.500000
 MD| Conserved quantity [hartree]                            -0.149490277353E+02
 MD| ---------------------------------------------------------------------------
 MD|                                          Instantaneous             Averages
 MD| CPU time per MD step [s]                      1.744095             5.111490
 MD| Energy drift per atom [K]          -0.688632509294E+00  -0.375569911655E+00
 MD| Potential energy [hartree]         -0.149512644692E+02  -0.149510605361E+02
 MD| Kinetic energy [hartree]            0.213316409497E-02   0.194427074824E-02
 MD| Temperature [K]                              64.152299            58.471563
 MD| ***************************************************************************

 Number of electrons:                                                         14
 Number of occupied orbitals:                                                  7
 Number of molecular orbitals:                                                 7

 Number of orbital functions:                                                 56
 Number of independent orbital functions:                                     56

 Extrapolation method: ASPC


 SCF WAVEFUNCTION OPTIMIZATION

  ----------------------------------- OT ---------------------------------------
  Minimizer      : CG                  : conjugate gradient
  Preconditioner : FULL_ALL            : diagonalization, state selective
  Precond_solver : DEFAULT
  Line search    : 2PNT                : 2 energies, one gradient
  stepsize       :    0.15000000                  energy_gap     :    0.08000000
  eps_taylor     :   0.10000E-15                  max_taylor     :             4
  ----------------------------------- OT ---------------------------------------

  Step     Update method      Time    Convergence         Total energy    Change
  ------------------------------------------------------------------------------
     1 OT CG       0.15E+00    0.2     0.00003882       -14.9513704124 -1.50E+01
     2 OT LS       0.21E+00    0.1                      -14.9513704698
     3 OT CG       0.21E+00    0.3     0.00001183       -14.9513704753 -6.28E-08
     4 OT LS       0.13E+00    0.1                      -14.9513704771
     5 OT CG       0.13E+00    0.3     0.00000273       -14.9513704787 -3.47E-09
     6 OT LS       0.16E+00    0.1                      -14.9513704789
     7 OT CG       0.16E+00    0.3     0.00000042       -14.9513704790 -2.31E-10

  *** SCF run converged in     7 steps ***


  Electronic density on regular grids:        -14.0000000000        0.0000000000
  Core density on regular grids:               13.9999999989       -0.0000000011
  Total charge density on r-space grids:       -0.0000000010
  Total charge density g-space grids:          -0.0000000010

  Overlap energy of the core charge distribution:               0.00000142897438
  Self energy of the core charge distribution:                -35.13285960674677
  Core Hamiltonian energy:                                     11.43091925704239
  Hartree energy:                                              14.41528724669551
  Exchange-correlation energy:                                 -5.66471880492251

  Total energy:                                               -14.95137047895700

  outer SCF iter =    1 RMS gradient =   0.42E-06 energy =        -14.9513704790
  outer SCF loop converged in   1 iterations or    7 steps


 ENERGY| Total FORCE_EVAL ( QS ) energy [a.u.]:              -14.951370478963639

 MD| ***************************************************************************
 MD| Step number                                                               4
 MD| Time [fs]                                                          2.000000
 MD| Conserved quantity [hartree]                            -0.149490318859E+02
 MD| ---------------------------------------------------------------------------
 MD|                                          Instantaneous             Averages
 MD| CPU time per MD step [s]                      1.760210             4.273670
 MD| Energy drift per atom [K]          -0.852464567553E+00  -0.494793575630E+00
 MD| Potential energy [hartree]         -0.149513704790E+02  -0.149511380218E+02
 MD| Kinetic energy [hartree]            0.222532511501E-02   0.201453433993E-02
 MD| Temperature [K]                              66.923929            60.584654
 MD| ***************************************************************************

 Number of electrons:                                                         14
 Number of occupied orbitals:                                                  7
 Number of molecular orbitals:                                                 7

 Number of orbital functions:                                                 56
 Number of independent orbital functions:                                     56

 Extrapolation method: ASPC


 SCF WAVEFUNCTION OPTIMIZATION

  ----------------------------------- OT ---------------------------------------
  Minimizer      : CG                  : conjugate gradient
  Preconditioner : FULL_ALL            : diagonalization, state selective
  Precond_solver : DEFAULT
  Line search    : 2PNT                : 2 energies, one gradient
  stepsize       :    0.15000000                  energy_gap     :    0.08000000
  eps_taylor     :   0.10000E-15                  max_taylor     :             4
  ----------------------------------- OT ---------------------------------------

  Step     Update method      Time    Convergence         Total energy    Change
  ------------------------------------------------------------------------------
     1 OT CG       0.15E+00    0.2     0.00003436       -14.9513168596 -1.50E+01
     2 OT LS       0.21E+00    0.1                      -14.9513169045
     3 OT CG       0.21E+00    0.2     0.00001204       -14.9513169087 -4.91E-08
     4 OT LS       0.12E+00    0.2                      -14.9513169101
     5 OT CG       0.12E+00    0.3     0.00000182       -14.9513169121 -3.43E-09
     6 OT LS       0.18E+00    0.1                      -14.9513169122
     7 OT CG       0.18E+00    0.3     0.00000038       -14.9513169122 -1.16E-10

  *** SCF run converged in     7 steps ***


  Electronic density on regular grids:        -14.0000000000        0.0000000000
  Core density on regular grids:               13.9999999989       -0.0000000011
  Total charge density on r-space grids:       -0.0000000010
  Total charge density g-space grids:          -0.0000000010

  Overlap energy of the core charge distribution:               0.00000166980802
  Self energy of the core charge distribution:                -35.13285960674677
  Core Hamiltonian energy:                                     11.46296133792397
  Hartree energy:                                              14.39358913758083
  Exchange-correlation energy:                                 -5.67500945076558

  Total energy:                                               -14.95131691219952

  outer SCF iter =    1 RMS gradient =   0.38E-06 energy =        -14.9513169122
  outer SCF loop converged in   1 iterations or    7 steps


 ENERGY| Total FORCE_EVAL ( QS ) energy [a.u.]:              -14.951316912204366

 MD| ***************************************************************************
 MD| Step number                                                               5
 MD| Time [fs]                                                          2.500000
 MD| Conserved quantity [hartree]                            -0.149490323304E+02
 MD| ---------------------------------------------------------------------------
 MD|                                          Instantaneous             Averages
 MD| CPU time per MD step [s]                      1.791975             3.777331
 MD| Energy drift per atom [K]          -0.870009501849E+00  -0.569836760874E+00
 MD| Potential energy [hartree]         -0.149513169122E+02  -0.149511737999E+02
 MD| Kinetic energy [hartree]            0.216139885670E-02   0.204390724329E-02
 MD| Temperature [K]                              65.001425            61.468009
 MD| ***************************************************************************

 Number of electrons:                                                         14
 Number of occupied orbitals:                                                  7
 Number of molecular orbitals:                                                 7

 Number of orbital functions:                                                 56
 Number of independent orbital functions:                                     56

 Extrapolation method: ASPC


 SCF WAVEFUNCTION OPTIMIZATION

  ----------------------------------- OT ---------------------------------------
  Minimizer      : CG                  : conjugate gradient
  Preconditioner : FULL_ALL            : diagonalization, state selective
  Precond_solver : DEFAULT
  Line search    : 2PNT                : 2 energies, one gradient
  stepsize       :    0.15000000                  energy_gap     :    0.08000000
  eps_taylor     :   0.10000E-15                  max_taylor     :             4
  ----------------------------------- OT ---------------------------------------

  Step     Update method      Time    Convergence         Total energy    Change
  ------------------------------------------------------------------------------
     1 OT CG       0.15E+00    0.2     0.00005006       -14.9511003793 -1.50E+01
     2 OT LS       0.17E+00    0.1                      -14.9511004626
     3 OT CG       0.17E+00    0.3     0.00002192       -14.9511004640 -8.47E-08
     4 OT LS       0.14E+00    0.1                      -14.9511004770
     5 OT CG       0.14E+00    0.3     0.00000225       -14.9511004775 -1.35E-08
     6 OT LS       0.19E+00    0.1                      -14.9511004777
     7 OT CG       0.19E+00    0.3     0.00000047       -14.9511004777 -1.91E-10

  *** SCF run converged in     7 steps ***


  Electronic density on regular grids:        -14.0000000000        0.0000000000
  Core density on regular grids:               13.9999999989       -0.0000000011
  Total charge density on r-space grids:       -0.0000000010
  Total charge density g-space grids:          -0.0000000010

  Overlap energy of the core charge distribution:               0.00000193531702
  Self energy of the core charge distribution:                -35.13285960674677
  Core Hamiltonian energy:                                     11.49393785114562
  Hartree energy:                                              14.37274897975856
  Exchange-correlation energy:                                 -5.68492963718260

  Total energy:                                               -14.95110047770817

  outer SCF iter =    1 RMS gradient =   0.47E-06 energy =        -14.9511004777
  outer SCF loop converged in   1 iterations or    7 steps


 ENERGY| Total FORCE_EVAL ( QS ) energy [a.u.]:              -14.951100477715240

 MD| ***************************************************************************
 MD| Step number                                                               6
 MD| Time [fs]                                                          3.000000
 MD| Conserved quantity [hartree]                            -0.149490287259E+02
 MD| ---------------------------------------------------------------------------
 MD|                                          Instantaneous             Averages
 MD| CPU time per MD step [s]                      1.804262             3.448486
 MD| Energy drift per atom [K]          -0.727734403238E+00  -0.596153034601E+00
 MD| Potential energy [hartree]         -0.149511004777E+02  -0.149511615795E+02
 MD| Kinetic energy [hartree]            0.193917213435E-02   0.202645139180E-02
 MD| Temperature [K]                              58.318228            60.943045
 MD| ***************************************************************************

 Number of electrons:                                                         14
 Number of occupied orbitals:                                                  7
 Number of molecular orbitals:                                                 7

 Number of orbital functions:                                                 56
 Number of independent orbital functions:                                     56

 Extrapolation method: ASPC


 SCF WAVEFUNCTION OPTIMIZATION

  ----------------------------------- OT ---------------------------------------
  Minimizer      : CG                  : conjugate gradient
  Preconditioner : FULL_ALL            : diagonalization, state selective
  Precond_solver : DEFAULT
  Line search    : 2PNT                : 2 energies, one gradient
  stepsize       :    0.15000000                  energy_gap     :    0.08000000
  eps_taylor     :   0.10000E-15                  max_taylor     :             4
  ----------------------------------- OT ---------------------------------------

  Step     Update method      Time    Convergence         Total energy    Change
  ------------------------------------------------------------------------------
     1 OT CG       0.15E+00    0.2     0.00006953       -14.9507809004 -1.50E+01
     2 OT LS       0.16E+00    0.1                      -14.9507810512
     3 OT CG       0.16E+00    0.3     0.00002963       -14.9507810518 -1.51E-07
     4 OT LS       0.15E+00    0.1                      -14.9507810783
     5 OT CG       0.15E+00    0.3     0.00000329       -14.9507810783 -2.65E-08
     6 OT LS       0.19E+00    0.1                      -14.9507810787
     7 OT CG       0.19E+00    0.3     0.00000063       -14.9507810787 -3.96E-10

  *** SCF run converged in     7 steps ***


  Electronic density on regular grids:        -14.0000000000        0.0000000000
  Core density on regular grids:               13.9999999989       -0.0000000011
  Total charge density on r-space grids:       -0.0000000010
  Total charge density g-space grids:          -0.0000000010

  Overlap energy of the core charge distribution:               0.00000219778662
  Self energy of the core charge distribution:                -35.13285960674677
  Core Hamiltonian energy:                                     11.52115177668933
  Hartree energy:                                              14.35455176391865
  Exchange-correlation energy:                                 -5.69362721036915

  Total energy:                                               -14.95078107872132

  outer SCF iter =    1 RMS gradient =   0.63E-06 energy =        -14.9507810787
  outer SCF loop converged in   1 iterations or    7 steps


 ENERGY| Total FORCE_EVAL ( QS ) energy [a.u.]:              -14.950781078735357

 MD| ***************************************************************************
 MD| Step number                                                               7
 MD| Time [fs]                                                          3.500000
 MD| Conserved quantity [hartree]                            -0.149490221150E+02
 MD| ---------------------------------------------------------------------------
 MD|                                          Instantaneous             Averages
 MD| CPU time per MD step [s]                      1.810857             3.214539
 MD| Energy drift per atom [K]          -0.466789312903E+00  -0.577672502930E+00
 MD| Potential energy [hartree]         -0.149507810787E+02  -0.149511072223E+02
 MD| Kinetic energy [hartree]            0.161816540782E-02   0.196812482266E-02
 MD| Temperature [K]                              48.664344            59.188945
 MD| ***************************************************************************

 Number of electrons:                                                         14
 Number of occupied orbitals:                                                  7
 Number of molecular orbitals:                                                 7

 Number of orbital functions:                                                 56
 Number of independent orbital functions:                                     56

 Extrapolation method: ASPC


 SCF WAVEFUNCTION OPTIMIZATION

  ----------------------------------- OT ---------------------------------------
  Minimizer      : CG                  : conjugate gradient
  Preconditioner : FULL_ALL            : diagonalization, state selective
  Precond_solver : DEFAULT
  Line search    : 2PNT                : 2 energies, one gradient
  stepsize       :    0.15000000                  energy_gap     :    0.08000000
  eps_taylor     :   0.10000E-15                  max_taylor     :             4
  ----------------------------------- OT ---------------------------------------

  Step     Update method      Time    Convergence         Total energy    Change
  ------------------------------------------------------------------------------
     1 OT CG       0.15E+00    0.2     0.00008635       -14.9504642121 -1.50E+01
     2 OT LS       0.16E+00    0.1                      -14.9504644387
     3 OT CG       0.16E+00    0.3     0.00003592       -14.9504644389 -2.27E-07
     4 OT LS       0.16E+00    0.1                      -14.9504644789
     5 OT CG       0.16E+00    0.3     0.00000428       -14.9504644789 -4.00E-08
     6 OT LS       0.18E+00    0.1                      -14.9504644796
     7 OT CG       0.18E+00    0.3     0.00000076       -14.9504644796 -6.60E-10

  *** SCF run converged in     7 steps ***


  Electronic density on regular grids:        -14.0000000000        0.0000000000
  Core density on regular grids:               13.9999999989       -0.0000000011
  Total charge density on r-space grids:       -0.0000000010
  Total charge density g-space grids:          -0.0000000010

  Overlap energy of the core charge distribution:               0.00000242169512
  Self energy of the core charge distribution:                -35.13285960674677
  Core Hamiltonian energy:                                     11.54206249763093
  Hartree energy:                                              14.34064091427965
  Exchange-correlation energy:                                 -5.70031070645981

  Total energy:                                               -14.95046447960088

  outer SCF iter =    1 RMS gradient =   0.76E-06 energy =        -14.9504644796
  outer SCF loop converged in   1 iterations or    7 steps


 ENERGY| Total FORCE_EVAL ( QS ) energy [a.u.]:              -14.950464479622608

 MD| ***************************************************************************
 MD| Step number                                                               8
 MD| Time [fs]                                                          4.000000
 MD| Conserved quantity [hartree]                            -0.149490147421E+02
 MD| ---------------------------------------------------------------------------
 MD|                                          Instantaneous             Averages
 MD| CPU time per MD step [s]                      2.440801             3.117822
 MD| Energy drift per atom [K]          -0.175767526329E+00  -0.527434380855E+00
 MD| Potential energy [hartree]         -0.149504644796E+02  -0.149510268794E+02
 MD| Kinetic energy [hartree]            0.130219033000E-02   0.188488301108E-02
 MD| Temperature [K]                              39.161780            56.685549
 MD| ***************************************************************************

 Number of electrons:                                                         14
 Number of occupied orbitals:                                                  7
 Number of molecular orbitals:                                                 7

 Number of orbital functions:                                                 56
 Number of independent orbital functions:                                     56

 Extrapolation method: ASPC


 SCF WAVEFUNCTION OPTIMIZATION

  ----------------------------------- OT ---------------------------------------
  Minimizer      : CG                  : conjugate gradient
  Preconditioner : FULL_ALL            : diagonalization, state selective
  Precond_solver : DEFAULT
  Line search    : 2PNT                : 2 energies, one gradient
  stepsize       :    0.15000000                  energy_gap     :    0.08000000
  eps_taylor     :   0.10000E-15                  max_taylor     :             4
  ----------------------------------- OT ---------------------------------------

  Step     Update method      Time    Convergence         Total energy    Change
  ------------------------------------------------------------------------------
     1 OT CG       0.15E+00    0.2     0.00009725       -14.9502668196 -1.50E+01
     2 OT LS       0.15E+00    0.1                      -14.9502671035
     3 OT CG       0.15E+00    0.3     0.00003987       -14.9502671036 -2.84E-07
     4 OT LS       0.16E+00    0.1                      -14.9502671533
     5 OT CG       0.16E+00    0.3     0.00000496       -14.9502671534 -4.98E-08
     6 OT LS       0.18E+00    0.1                      -14.9502671543
     7 OT CG       0.18E+00    0.3     0.00000084       -14.9502671543 -8.79E-10

  *** SCF run converged in     7 steps ***


  Electronic density on regular grids:        -14.0000000000        0.0000000000
  Core density on regular grids:               13.9999999989       -0.0000000011
  Total charge density on r-space grids:       -0.0000000010
  Total charge density g-space grids:          -0.0000000010

  Overlap energy of the core charge distribution:               0.00000257160969
  Self energy of the core charge distribution:                -35.13285960674677
  Core Hamiltonian energy:                                     11.55457608510589
  Hartree energy:                                              14.33234837235294
  Exchange-correlation energy:                                 -5.70433457661259

  Total energy:                                               -14.95026715429084

  outer SCF iter =    1 RMS gradient =   0.84E-06 energy =        -14.9502671543
  outer SCF loop converged in   1 iterations or    7 steps


 ENERGY| Total FORCE_EVAL ( QS ) energy [a.u.]:              -14.950267154318102

 MD| ***************************************************************************
 MD| Step number                                                               9
 MD| Time [fs]                                                          4.500000
 MD| Conserved quantity [hartree]                            -0.149490092265E+02
 MD| ---------------------------------------------------------------------------
 MD|                                          Instantaneous             Averages
 MD| CPU time per MD step [s]                      1.823070             2.973960
 MD| Energy drift per atom [K]           0.419455146493E-01  -0.464169948021E+00
 MD| Potential energy [hartree]         -0.149502671543E+02  -0.149509424655E+02
 MD| Kinetic energy [hartree]            0.110486053574E-02   0.179821384715E-02
 MD| Temperature [K]                              33.227328            54.079080
 MD| ***************************************************************************

 Number of electrons:                                                         14
 Number of occupied orbitals:                                                  7
 Number of molecular orbitals:                                                 7

 Number of orbital functions:                                                 56
 Number of independent orbital functions:                                     56

 Extrapolation method: ASPC


 SCF WAVEFUNCTION OPTIMIZATION

  ----------------------------------- OT ---------------------------------------
  Minimizer      : CG                  : conjugate gradient
  Preconditioner : FULL_ALL            : diagonalization, state selective
  Precond_solver : DEFAULT
  Line search    : 2PNT                : 2 energies, one gradient
  stepsize       :    0.15000000                  energy_gap     :    0.08000000
  eps_taylor     :   0.10000E-15                  max_taylor     :             4
  ----------------------------------- OT ---------------------------------------

  Step     Update method      Time    Convergence         Total energy    Change
  ------------------------------------------------------------------------------
     1 OT CG       0.15E+00    0.2     0.00010066       -14.9502752492 -1.50E+01
     2 OT LS       0.15E+00    0.1                      -14.9502755511
     3 OT CG       0.15E+00    0.2     0.00004094       -14.9502755511 -3.02E-07
     4 OT LS       0.16E+00    0.1                      -14.9502756038
     5 OT CG       0.16E+00    0.3     0.00000523       -14.9502756040 -5.29E-08
     6 OT LS       0.18E+00    0.1                      -14.9502756050
     7 OT CG       0.18E+00    0.3     0.00000086       -14.9502756050 -9.72E-10

  *** SCF run converged in     7 steps ***


  Electronic density on regular grids:        -14.0000000000        0.0000000000
  Core density on regular grids:               13.9999999989       -0.0000000011
  Total charge density on r-space grids:       -0.0000000010
  Total charge density g-space grids:          -0.0000000010

  Overlap energy of the core charge distribution:               0.00000262197377
  Self energy of the core charge distribution:                -35.13285960674677
  Core Hamiltonian energy:                                     11.55731625779531
  Hartree energy:                                              14.33054186270295
  Exchange-correlation energy:                                 -5.70527674070214

  Total energy:                                               -14.95027560497688

  outer SCF iter =    1 RMS gradient =   0.86E-06 energy =        -14.9502756050
  outer SCF loop converged in   1 iterations or    7 steps


 ENERGY| Total FORCE_EVAL ( QS ) energy [a.u.]:              -14.950275605005887

 MD| ***************************************************************************
 MD| Step number                                                              10
 MD| Time [fs]                                                          5.000000
 MD| Conserved quantity [hartree]                            -0.149490075867E+02
 MD| ---------------------------------------------------------------------------
 MD|                                          Instantaneous             Averages
 MD| CPU time per MD step [s]                      1.800503             2.856615
 MD| Energy drift per atom [K]           0.106671972279E+00  -0.407085755991E+00
 MD| Potential energy [hartree]         -0.149502756050E+02  -0.149508757795E+02
 MD| Kinetic energy [hartree]            0.110993726845E-02   0.172938618928E-02
 MD| Temperature [K]                              33.380005            52.009173
 MD| ***************************************************************************

 Number of electrons:                                                         14
 Number of occupied orbitals:                                                  7
 Number of molecular orbitals:                                                 7

 Number of orbital functions:                                                 56
 Number of independent orbital functions:                                     56

 Extrapolation method: ASPC


 SCF WAVEFUNCTION OPTIMIZATION

  ----------------------------------- OT ---------------------------------------
  Minimizer      : CG                  : conjugate gradient
  Preconditioner : FULL_ALL            : diagonalization, state selective
  Precond_solver : DEFAULT
  Line search    : 2PNT                : 2 energies, one gradient
  stepsize       :    0.15000000                  energy_gap     :    0.08000000
  eps_taylor     :   0.10000E-15                  max_taylor     :             4
  ----------------------------------- OT ---------------------------------------

  Step     Update method      Time    Convergence         Total energy    Change
  ------------------------------------------------------------------------------
     1 OT CG       0.15E+00    0.2     0.00009616       -14.9505149074 -1.50E+01
     2 OT LS       0.15E+00    0.1                      -14.9505151820
     3 OT CG       0.15E+00    0.3     0.00003902       -14.9505151820 -2.75E-07
     4 OT LS       0.16E+00    0.1                      -14.9505152300
     5 OT CG       0.16E+00    0.3     0.00000506       -14.9505152301 -4.81E-08
     6 OT LS       0.18E+00    0.1                      -14.9505152310
     7 OT CG       0.18E+00    0.3     0.00000082       -14.9505152310 -9.05E-10

  *** SCF run converged in     7 steps ***


  Electronic density on regular grids:        -14.0000000000        0.0000000000
  Core density on regular grids:               13.9999999989       -0.0000000011
  Total charge density on r-space grids:       -0.0000000010
  Total charge density g-space grids:          -0.0000000010

  Overlap energy of the core charge distribution:               0.00000256462853
  Self energy of the core charge distribution:                -35.13285960674677
  Core Hamiltonian energy:                                     11.54981382105027
  Hartree energy:                                              14.33552017642592
  Exchange-correlation energy:                                 -5.70299218639804

  Total energy:                                               -14.95051523104008

  outer SCF iter =    1 RMS gradient =   0.82E-06 energy =        -14.9505152310
  outer SCF loop converged in   1 iterations or    7 steps


 ENERGY| Total FORCE_EVAL ( QS ) energy [a.u.]:              -14.950515231066653

 MD| ***************************************************************************
 MD| Step number                                                              11
 MD| Time [fs]                                                          5.500000
 MD| Conserved quantity [hartree]                            -0.149490104734E+02
 MD| ---------------------------------------------------------------------------
 MD|                                          Instantaneous             Averages
 MD| CPU time per MD step [s]                      1.773636             2.758162
 MD| Energy drift per atom [K]          -0.727219419311E-02  -0.370739068555E+00
 MD| Potential energy [hartree]         -0.149505152311E+02  -0.149508430023E+02
 MD| Kinetic energy [hartree]            0.134119920728E-02   0.169409646364E-02
 MD| Temperature [K]                              40.334925            50.947878
 MD| ***************************************************************************

 Number of electrons:                                                         14
 Number of occupied orbitals:                                                  7
 Number of molecular orbitals:                                                 7

 Number of orbital functions:                                                 56
 Number of independent orbital functions:                                     56

 Extrapolation method: ASPC


 SCF WAVEFUNCTION OPTIMIZATION

  ----------------------------------- OT ---------------------------------------
  Minimizer      : CG                  : conjugate gradient
  Preconditioner : FULL_ALL            : diagonalization, state selective
  Precond_solver : DEFAULT
  Line search    : 2PNT                : 2 energies, one gradient
  stepsize       :    0.15000000                  energy_gap     :    0.08000000
  eps_taylor     :   0.10000E-15                  max_taylor     :             4
  ----------------------------------- OT ---------------------------------------

  Step     Update method      Time    Convergence         Total energy    Change
  ------------------------------------------------------------------------------
     1 OT CG       0.15E+00    0.2     0.00008446       -14.9509402462 -1.50E+01
     2 OT LS       0.15E+00    0.1                      -14.9509404585
     3 OT CG       0.15E+00    0.3     0.00003445       -14.9509404586 -2.12E-07
     4 OT LS       0.16E+00    0.2                      -14.9509404958
     5 OT CG       0.16E+00    0.3     0.00000448       -14.9509404959 -3.74E-08
     6 OT LS       0.18E+00    0.1                      -14.9509404966
     7 OT CG       0.18E+00    0.3     0.00000074       -14.9509404967 -7.08E-10

  *** SCF run converged in     7 steps ***


  Electronic density on regular grids:        -14.0000000000        0.0000000000
  Core density on regular grids:               13.9999999989       -0.0000000011
  Total charge density on r-space grids:       -0.0000000010
  Total charge density g-space grids:          -0.0000000010

  Overlap energy of the core charge distribution:               0.00000241087025
  Self energy of the core charge distribution:                -35.13285960674677
  Core Hamiltonian energy:                                     11.53257071992261
  Hartree energy:                                              14.34697722283724
  Exchange-correlation energy:                                 -5.69763124353590

  Total energy:                                               -14.95094049665259

  outer SCF iter =    1 RMS gradient =   0.74E-06 energy =        -14.9509404967
  outer SCF loop converged in   1 iterations or    7 steps


 ENERGY| Total FORCE_EVAL ( QS ) energy [a.u.]:              -14.950940496673596

 MD| ***************************************************************************
 MD| Step number                                                              12
 MD| Time [fs]                                                          6.000000
 MD| Conserved quantity [hartree]                            -0.149490169434E+02
 MD| ---------------------------------------------------------------------------
 MD|                                          Instantaneous             Averages
 MD| CPU time per MD step [s]                      1.815848             2.679636
 MD| Energy drift per atom [K]          -0.262654031445E+00  -0.361731982129E+00
 MD| Potential energy [hartree]         -0.149509404967E+02  -0.149508511269E+02
 MD| Kinetic energy [hartree]            0.175312582416E-02   0.169901557702E-02
 MD| Temperature [K]                              52.723113            51.095814
 MD| ***************************************************************************

 Number of electrons:                                                         14
 Number of occupied orbitals:                                                  7
 Number of molecular orbitals:                                                 7

 Number of orbital functions:                                                 56
 Number of independent orbital functions:                                     56

 Extrapolation method: ASPC


 SCF WAVEFUNCTION OPTIMIZATION

  ----------------------------------- OT ---------------------------------------
  Minimizer      : CG                  : conjugate gradient
  Preconditioner : FULL_ALL            : diagonalization, state selective
  Precond_solver : DEFAULT
  Line search    : 2PNT                : 2 energies, one gradient
  stepsize       :    0.15000000                  energy_gap     :    0.08000000
  eps_taylor     :   0.10000E-15                  max_taylor     :             4
  ----------------------------------- OT ---------------------------------------

  Step     Update method      Time    Convergence         Total energy    Change
  ------------------------------------------------------------------------------
     1 OT CG       0.15E+00    0.2     0.00006732       -14.9514496191 -1.50E+01
     2 OT LS       0.15E+00    0.1                      -14.9514497563
     3 OT CG       0.15E+00    0.3     0.00002796       -14.9514497564 -1.37E-07
     4 OT LS       0.16E+00    0.1                      -14.9514497806
     5 OT CG       0.16E+00    0.3     0.00000360       -14.9514497806 -2.42E-08
     6 OT LS       0.18E+00    0.1                      -14.9514497811
     7 OT CG       0.18E+00    0.3     0.00000062       -14.9514497811 -4.55E-10

  *** SCF run converged in     7 steps ***


  Electronic density on regular grids:        -14.0000000000        0.0000000000
  Core density on regular grids:               13.9999999989       -0.0000000011
  Total charge density on r-space grids:       -0.0000000010
  Total charge density g-space grids:          -0.0000000010

  Overlap energy of the core charge distribution:               0.00000218745731
  Self energy of the core charge distribution:                -35.13285960674677
  Core Hamiltonian energy:                                     11.50698686203311
  Hartree energy:                                              14.36404024385310
  Exchange-correlation energy:                                 -5.68961946769007

  Total energy:                                               -14.95144978109332

  outer SCF iter =    1 RMS gradient =   0.62E-06 energy =        -14.9514497811
  outer SCF loop converged in   1 iterations or    7 steps


 ENERGY| Total FORCE_EVAL ( QS ) energy [a.u.]:              -14.951449781107637

 MD| ***************************************************************************
 MD| Step number                                                              13
 MD| Time [fs]                                                          6.500000
 MD| Conserved quantity [hartree]                            -0.149490248546E+02
 MD| ---------------------------------------------------------------------------
 MD|                                          Instantaneous             Averages
 MD| CPU time per MD step [s]                      1.780758             2.610492
 MD| Energy drift per atom [K]          -0.574926948395E+00  -0.378131594919E+00
 MD| Potential energy [hartree]         -0.149514497811E+02  -0.149508971772E+02
 MD| Kinetic energy [hartree]            0.224558403772E-02   0.174105930477E-02
 MD| Temperature [K]                              67.533191            52.360228
 MD| ***************************************************************************

 Number of electrons:                                                         14
 Number of occupied orbitals:                                                  7
 Number of molecular orbitals:                                                 7

 Number of orbital functions:                                                 56
 Number of independent orbital functions:                                     56

 Extrapolation method: ASPC


 SCF WAVEFUNCTION OPTIMIZATION

  ----------------------------------- OT ---------------------------------------
  Minimizer      : CG                  : conjugate gradient
  Preconditioner : FULL_ALL            : diagonalization, state selective
  Precond_solver : DEFAULT
  Line search    : 2PNT                : 2 energies, one gradient
  stepsize       :    0.15000000                  energy_gap     :    0.08000000
  eps_taylor     :   0.10000E-15                  max_taylor     :             4
  ----------------------------------- OT ---------------------------------------

  Step     Update method      Time    Convergence         Total energy    Change
  ------------------------------------------------------------------------------
     1 OT CG       0.15E+00    0.2     0.00004800       -14.9519187534 -1.50E+01
     2 OT LS       0.17E+00    0.1                      -14.9519188277
     3 OT CG       0.17E+00    0.3     0.00002065       -14.9519188284 -7.49E-08
     4 OT LS       0.15E+00    0.1                      -14.9519188406
     5 OT CG       0.15E+00    0.3     0.00000261       -14.9519188407 -1.24E-08
     6 OT LS       0.18E+00    0.1                      -14.9519188410
     7 OT CG       0.18E+00    0.3     0.00000050       -14.9519188410 -2.38E-10

  *** SCF run converged in     7 steps ***


  Electronic density on regular grids:        -14.0000000000        0.0000000000
  Core density on regular grids:               13.9999999989       -0.0000000011
  Total charge density on r-space grids:       -0.0000000010
  Total charge density g-space grids:          -0.0000000010

  Overlap energy of the core charge distribution:               0.00000192858001
  Self energy of the core charge distribution:                -35.13285960674677
  Core Hamiltonian energy:                                     11.47516786328951
  Hartree energy:                                              14.38537451374912
  Exchange-correlation energy:                                 -5.67960353985524

  Total energy:                                               -14.95191884098338

  outer SCF iter =    1 RMS gradient =   0.50E-06 energy =        -14.9519188410
  outer SCF loop converged in   1 iterations or    7 steps


 ENERGY| Total FORCE_EVAL ( QS ) energy [a.u.]:              -14.951918840992123

 MD| ***************************************************************************
 MD| Step number                                                              14
 MD| Time [fs]                                                          7.000000
 MD| Conserved quantity [hartree]                            -0.149490316785E+02
 MD| ---------------------------------------------------------------------------
 MD|                                          Instantaneous             Averages
 MD| CPU time per MD step [s]                      1.775291             2.550834
 MD| Energy drift per atom [K]          -0.844278273972E+00  -0.411427786280E+00
 MD| Potential energy [hartree]         -0.149519188410E+02  -0.149509701532E+02
 MD| Kinetic energy [hartree]            0.269661446086E-02   0.180931324449E-02
 MD| Temperature [K]                              81.097379            54.412881
 MD| ***************************************************************************

 Number of electrons:                                                         14
 Number of occupied orbitals:                                                  7
 Number of molecular orbitals:                                                 7

 Number of orbital functions:                                                 56
 Number of independent orbital functions:                                     56

 Extrapolation method: ASPC


 SCF WAVEFUNCTION OPTIMIZATION

  ----------------------------------- OT ---------------------------------------
  Minimizer      : CG                  : conjugate gradient
  Preconditioner : FULL_ALL            : diagonalization, state selective
  Precond_solver : DEFAULT
  Line search    : 2PNT                : 2 energies, one gradient
  stepsize       :    0.15000000                  energy_gap     :    0.08000000
  eps_taylor     :   0.10000E-15                  max_taylor     :             4
  ----------------------------------- OT ---------------------------------------

  Step     Update method      Time    Convergence         Total energy    Change
  ------------------------------------------------------------------------------
     1 OT CG       0.15E+00    0.2     0.00003314       -14.9522402814 -1.50E+01
     2 OT LS       0.21E+00    0.1                      -14.9522403228
     3 OT CG       0.21E+00    0.2     0.00001185       -14.9522403263 -4.49E-08
     4 OT LS       0.12E+00    0.1                      -14.9522403280
     5 OT CG       0.12E+00    0.3     0.00000194       -14.9522403297 -3.38E-09
     6 OT LS       0.17E+00    0.1                      -14.9522403298
     7 OT CG       0.17E+00    0.2     0.00000042       -14.9522403298 -1.26E-10

  *** SCF run converged in     7 steps ***


  Electronic density on regular grids:        -14.0000000000        0.0000000000
  Core density on regular grids:               13.9999999989       -0.0000000011
  Total charge density on r-space grids:       -0.0000000010
  Total charge density g-space grids:          -0.0000000010

  Overlap energy of the core charge distribution:               0.00000166717118
  Self energy of the core charge distribution:                -35.13285960674677
  Core Hamiltonian energy:                                     11.43965840312549
  Hartree energy:                                              14.40933414302644
  Exchange-correlation energy:                                 -5.66837493639412

  Total energy:                                               -14.95224032981778

  outer SCF iter =    1 RMS gradient =   0.42E-06 energy =        -14.9522403298
  outer SCF loop converged in   1 iterations or    7 steps


 ENERGY| Total FORCE_EVAL ( QS ) energy [a.u.]:              -14.952240329823631

 MD| ***************************************************************************
 MD| Step number                                                              15
 MD| Time [fs]                                                          7.500000
 MD| Conserved quantity [hartree]                            -0.149490353908E+02
 MD| ---------------------------------------------------------------------------
 MD|                                          Instantaneous             Averages
 MD| CPU time per MD step [s]                      1.754904             2.497772
 MD| Energy drift per atom [K]          -0.990808311999E+00  -0.450053154661E+00
 MD| Potential energy [hartree]         -0.149522403298E+02  -0.149510548316E+02
 MD| Kinetic energy [hartree]            0.300111010505E-02   0.188876636852E-02
 MD| Temperature [K]                              90.254713            56.802337
 MD| ***************************************************************************

 Number of electrons:                                                         14
 Number of occupied orbitals:                                                  7
 Number of molecular orbitals:                                                 7

 Number of orbital functions:                                                 56
 Number of independent orbital functions:                                     56

 Extrapolation method: ASPC


 SCF WAVEFUNCTION OPTIMIZATION

  ----------------------------------- OT ---------------------------------------
  Minimizer      : CG                  : conjugate gradient
  Preconditioner : FULL_ALL            : diagonalization, state selective
  Precond_solver : DEFAULT
  Line search    : 2PNT                : 2 energies, one gradient
  stepsize       :    0.15000000                  energy_gap     :    0.08000000
  eps_taylor     :   0.10000E-15                  max_taylor     :             4
  ----------------------------------- OT ---------------------------------------

  Step     Update method      Time    Convergence         Total energy    Change
  ------------------------------------------------------------------------------
     1 OT CG       0.15E+00    0.2     0.00003416       -14.9523555245 -1.50E+01
     2 OT LS       0.22E+00    0.1                      -14.9523555695
     3 OT CG       0.22E+00    0.3     0.00001015       -14.9523555742 -4.97E-08
     4 OT LS       0.12E+00    0.1                      -14.9523555753
     5 OT CG       0.12E+00    0.3     0.00000219       -14.9523555767 -2.49E-09
     6 OT LS       0.16E+00    0.1                      -14.9523555769
     7 OT CG       0.16E+00    0.2     0.00000043       -14.9523555769 -1.52E-10

  *** SCF run converged in     7 steps ***


  Electronic density on regular grids:        -14.0000000000        0.0000000000
  Core density on regular grids:               13.9999999989       -0.0000000011
  Total charge density on r-space grids:       -0.0000000010
  Total charge density g-space grids:          -0.0000000010

  Overlap energy of the core charge distribution:               0.00000142863669
  Self energy of the core charge distribution:                -35.13285960674677
  Core Hamiltonian energy:                                     11.40315850807039
  Hartree energy:                                              14.43413012664946
  Exchange-correlation energy:                                 -5.65678603347705

  Total energy:                                               -14.95235557686728

  outer SCF iter =    1 RMS gradient =   0.43E-06 energy =        -14.9523555769
  outer SCF loop converged in   1 iterations or    7 steps


 ENERGY| Total FORCE_EVAL ( QS ) energy [a.u.]:              -14.952355576873572

 MD| ***************************************************************************
 MD| Step number                                                              16
 MD| Time [fs]                                                          8.000000
 MD| Conserved quantity [hartree]                            -0.149490350935E+02
 MD| ---------------------------------------------------------------------------
 MD|                                          Instantaneous             Averages
 MD| CPU time per MD step [s]                      1.756522             2.451444
 MD| Energy drift per atom [K]          -0.979074165780E+00  -0.483116967856E+00
 MD| Potential energy [hartree]         -0.149523555769E+02  -0.149511361282E+02
 MD| Kinetic energy [hartree]            0.310193399970E-02   0.196458934547E-02
 MD| Temperature [K]                              93.286868            59.082620
 MD| ***************************************************************************

 Number of electrons:                                                         14
 Number of occupied orbitals:                                                  7
 Number of molecular orbitals:                                                 7

 Number of orbital functions:                                                 56
 Number of independent orbital functions:                                     56

 Extrapolation method: ASPC


 SCF WAVEFUNCTION OPTIMIZATION

  ----------------------------------- OT ---------------------------------------
  Minimizer      : CG                  : conjugate gradient
  Preconditioner : FULL_ALL            : diagonalization, state selective
  Precond_solver : DEFAULT
  Line search    : 2PNT                : 2 energies, one gradient
  stepsize       :    0.15000000                  energy_gap     :    0.08000000
  eps_taylor     :   0.10000E-15                  max_taylor     :             4
  ----------------------------------- OT ---------------------------------------

  Step     Update method      Time    Convergence         Total energy    Change
  ------------------------------------------------------------------------------
     1 OT CG       0.15E+00    0.2     0.00004828       -14.9522687678 -1.50E+01
     2 OT LS       0.18E+00    0.1                      -14.9522688468
[...]
     7 OT CG       0.17E+00    0.2     0.00000034       -14.9523092635 -2.09E-10

  *** SCF run converged in     7 steps ***


  Electronic density on regular grids:        -14.0000000000        0.0000000000
  Core density on regular grids:               13.9999999989       -0.0000000011
  Total charge density on r-space grids:       -0.0000000010
  Total charge density g-space grids:          -0.0000000010

  Overlap energy of the core charge distribution:               0.00000128430438
  Self energy of the core charge distribution:                -35.13285960674677
  Core Hamiltonian energy:                                     11.32448517194412
  Hartree energy:                                              14.48974342592090
  Exchange-correlation energy:                                 -5.63367953887356

  Total energy:                                               -14.95230926345092

  outer SCF iter =    1 RMS gradient =   0.34E-06 energy =        -14.9523092635
  outer SCF loop converged in   1 iterations or    7 steps


 ENERGY| Total FORCE_EVAL ( QS ) energy [a.u.]:              -14.952309263455458

 MD| ***************************************************************************
 MD| Step number                                                            1000
 MD| Time [fs]                                                        500.000000
 MD| Conserved quantity [hartree]                            -0.149490330592E+02
 MD| ---------------------------------------------------------------------------
 MD|                                          Instantaneous             Averages
 MD| CPU time per MD step [s]                      1.305432             1.664052
 MD| Energy drift per atom [K]          -0.898775757521E+00  -0.640642516500E+00
 MD| Potential energy [hartree]         -0.149523092635E+02  -0.149517935167E+02
 MD| Kinetic energy [hartree]            0.181346403468E-02   0.161874382687E-02
 MD| Temperature [K]                              54.537711            48.681739
 MD| ***************************************************************************

 -------------------------------------------------------------------------------
 -                                                                             -
 -                                DBCSR STATISTICS                             -
 -                                                                             -
 -------------------------------------------------------------------------------
 COUNTER                                    TOTAL       BLAS       SMM       ACC
 flops     7 x     7 x     7              2896978       0.0%    100.0%      0.0%
 flops     5 x    13 x     7             48937980       0.0%    100.0%      0.0%
 flops    13 x     5 x     7             48937980       0.0%    100.0%      0.0%
 flops     7 x     7 x    13             50717940       0.0%    100.0%      0.0%
 flops     7 x     7 x     5             58520700       0.0%    100.0%      0.0%
 flops    13 x    13 x     7             63619374       0.0%    100.0%      0.0%
 flops     5 x     5 x     7             65878050       0.0%    100.0%      0.0%
 flops    26 x     7 x     7             68454568       0.0%    100.0%      0.0%
 flops    10 x     7 x     7             78986040       0.0%    100.0%      0.0%
 flops    26 x     7 x    13             94299296       0.0%    100.0%      0.0%
 flops    26 x     7 x     5            108806880       0.0%    100.0%      0.0%
 flops    10 x     7 x    13            108806880       0.0%    100.0%      0.0%
 flops    10 x     7 x     5            125546400       0.0%    100.0%      0.0%
 flops    13 x     7 x    13            207649624       0.0%    100.0%      0.0%
 flops    13 x     7 x     5            239595720       0.0%    100.0%      0.0%
 flops     5 x     7 x    13            239595720       0.0%    100.0%      0.0%
 flops     5 x     7 x     5            276456600       0.0%    100.0%      0.0%
 flops inhomo. stacks                           0       0.0%      0.0%      0.0%
 flops total                         1.887707E+09       0.0%    100.0%      0.0%
 flops max/rank                    894.561080E+06       0.0%    100.0%      0.0%
 matmuls inhomo. stacks                         0       0.0%      0.0%      0.0%
 matmuls total                            2316667       0.0%    100.0%      0.0%
 number of processed stacks               1506999       0.0%    100.0%      0.0%
 average stack size                                     0.0       1.5       0.0
 marketing flops                     2.059950E+09
 -------------------------------------------------------------------------------
 # multiplications                          92863
 max memory usage/rank             179.900416E+06
 # max total images/rank                        3
 # max 3D layers                                1
 # MPI messages exchanged                42345528
 MPI messages size (bytes):
  total size                         5.491315E+09
  min size                           0.000000E+00
  max size                           2.704000E+03
  average size                     129.678741E+00
 MPI breakdown and total messages size (bytes):
             size <=      128            34208792                        0
       128 < size <=     8192             8136736               5492662448
      8192 < size <=    32768                   0                        0
     32768 < size <=   131072                   0                        0
    131072 < size <=  4194304                   0                        0
   4194304 < size <= 16777216                   0                        0
  16777216 < size                               0                        0
 -------------------------------------------------------------------------------

 *** WARNING in dbcsr_mm.F:294 :: Using a non-square number of MPI ranks ***
 *** might lead to poor performance. Used ranks: 24 Suggested: 25 49     ***

 -------------------------------------------------------------------------------
 -                                                                             -
 -                      DBCSR MESSAGE PASSING PERFORMANCE                      -
 -                                                                             -
 -------------------------------------------------------------------------------
 ROUTINE             CALLS      AVE VOLUME [Bytes]
 MP_Bcast               18                     12.
 MP_Allreduce       451334                      8.
 MP_Alltoall        563180                   1695.
 MP_ISend          3896242                    219.
 MP_IRecv          3896242                    144.
 -------------------------------------------------------------------------------

 -------------------------------------------------------------------------------
 -                                                                             -
 -                                GRID STATISTICS                              -
 -                                                                             -
 -------------------------------------------------------------------------------
 LP    KERNEL             BACKEND                              COUNT     PERCENT
 2     collocate ortho    REF                                5426628      35.40%
 3     collocate ortho    REF                                3022574      19.72%
 2     integrate ortho    REF                                2713314      17.70%
 3     integrate ortho    REF                                2193574      14.31%
 4     integrate ortho    REF                                 751745       4.90%
 4     collocate ortho    REF                                 743506       4.85%
 0     collocate general  REF                                 192192       1.25%
 1     integrate general  REF                                 192192       1.25%
 5     integrate ortho    REF                                  93469       0.61%
 -------------------------------------------------------------------------------

 MEMORY| Estimated peak process memory [MiB]                                 172

 -------------------------------------------------------------------------------
 -                                                                             -
 -                         MESSAGE PASSING PERFORMANCE                         -
 -                                                                             -
 -------------------------------------------------------------------------------

 ROUTINE             CALLS      AVE VOLUME [Bytes]
 MP_Group                4
 MP_Bcast            75850                   5771.
 MP_Allreduce       168375                     47.
 MP_Sync              6088
 MP_Alltoall        135492                2789623.
 MP_ISendRecv       893136                  53808.
 MP_Wait           1401300
 MP_comm_split        3042
 MP_ISend           448380                 171620.
 MP_IRecv           448380                 171447.
 MP_Recv              3006                    896.
 -------------------------------------------------------------------------------


 -------------------------------------------------------------------------------
 -                                                                             -
 -                           R E F E R E N C E S                               -
 -                                                                             -
 -------------------------------------------------------------------------------
 
 CP2K version 8.2, the CP2K developers group (2021).
 CP2K is freely available from https://www.cp2k.org/ .

 Kuehne,Thomas D.; Iannuzzi,Marcella; Del Ben,Mauro;
 Rybkin,Vladimir V.; Seewald,Patrick; Stein,Frederick; Laino,Teodoro;
 Khaliullin,Rustam Z.; Schuett,Ole; Schiffmann,Florian; Golze,Dorothea;
 Wilhelm,Jan; Chulkov,Sergey; Bani-Hashemian,Mohammad Hossein;
 Weber,Valery; Borstnik,Urban; Taillefumier,Mathieu;
 Jakobovits,Alice Shoshana; Lazzaro,Alfio; Pabst,Hans; Mueller,Tiziano;
 Schade,Robert; Guidon,Manuel; Andermatt,Samuel; Holmberg,Nico;
 Schenter,Gregory K.; Hehn,Anna; Bussy,Augustin; Belleflamme,Fabian;
 Tabacchi,Gloria; Gloess,Andreas; Lass,Michael; Bethune,Iain;
 Mundy,Christopher J.; Plessl,Christian; Watkins,Matt;
 VandeVondele,Joost; Krack,Matthias; Hutter,Juerg. 
 The Journal of Chemical Physics, 152 (19), (2020). 
 CP2K: An electronic structure and molecular dynamics software package -
 Quickstep: Efficient and accurate electronic structure calculations.
 https://doi.org/10.1063/5.0007045

 Schuett, Ole; Messmer, Peter; Hutter, Juerg; VandeVondele, Joost. 
 Electronic Structure Calculations on Graphics Processing Units, John
 Wiley & Sons, Ltd, 173-190 (2016). 
 GPU-Accelerated Sparse Matrix-Matrix Multiplication for
 Linear Scaling Density Functional Theory.
 https://doi.org/10.1002/9781118670712.ch8

 Heinecke, A; Henry, G; Hutchinson, M; Pabst, H. 
 Proceedings of Intl. Supercomputing Conference, 981-991 (2016). 
 LIBXSMM: Accelerating Small Matrix Multiplications
 by Runtime Code Generation.
 https://doi.org/10.1109/SC.2016.83

 Borstnik, U; VandeVondele, J; Weber, V; Hutter, J. 
 PARALLEL COMPUTING, 40 (5-6), 47-58 (2014). 
 Sparse matrix multiplication: The distributed block-compressed sparse
 row library.
 https://doi.org/10.1016/j.parco.2014.03.012

 Hutter, J; Iannuzzi, M; Schiffmann, F; VandeVondele, J. 
 WIREs Comput Mol Sci., 4 (1), 15-25 (2014). 
 CP2K: atomistic simulations of condensed matter systems.
 https://doi.org/10.1002/wcms.1159

 Marek, A; Blum, V; Johanni, R; Havu, V; Lang, B; Auckenthaler, T;
 Heinecke, A; Bungartz, H; Lederer, H. 
 Journal of Physics: Condensed Matter, 26 (21), (2014). 
 The ELPA library: scalable parallel eigenvalue solutions for
 electronic structure
 theory and computational science.
 https://doi.org/10.1088/0953-8984/26/21/213201

 VandeVondele, J; Hutter, J. 
 JOURNAL OF CHEMICAL PHYSICS, 127 (11), 114105 (2007). 
 Gaussian basis sets for accurate calculations on molecular systems in
 gas and condensed phases.
 https://doi.org/10.1063/1.2770708

 Kuhne, TD; Krack, M; Mohamed, FR; Parrinello, M. 
 PHYSICAL REVIEW LETTERS, 98 (6), 066401 (2007). 
 Efficient and accurate Car-Parrinello-like approach to
 Born-Oppenheimer molecular dynamics.
 https://doi.org/10.1103/PhysRevLett.98.066401

 Krack, M. 
 THEORETICAL CHEMISTRY ACCOUNTS, 114 (1-3), 145-152 (2005). 
 Pseudopotentials for H to Kr optimized for gradient-corrected
 exchange-correlation functionals.
 https://doi.org/10.1007/s00214-005-0655-y

 VandeVondele, J; Krack, M; Mohamed, F; Parrinello, M; Chassaing, T;
 Hutter, J. COMPUTER PHYSICS COMMUNICATIONS, 167 (2), 103-128 (2005). 
 QUICKSTEP: Fast and accurate density functional calculations using a
 mixed Gaussian and plane waves approach.
 https://doi.org/10.1016/j.cpc.2004.12.014

 Frigo, M; Johnson, SG. 
 PROCEEDINGS OF THE IEEE, 93 (2), 216-231 (2005). 
 The design and implementation of FFTW3.
 https://doi.org/10.1109/JPROC.2004.840301

 Kolafa, J. 
 JOURNAL OF COMPUTATIONAL CHEMISTRY, 25 (3), 335-342 (2004). 
 Time-reversible always stable predictor-corrector method for molecular dynamics of polarizable molecules.
 https://doi.org/10.1002/jcc.10385

 VandeVondele, J; Hutter, J. 
 JOURNAL OF CHEMICAL PHYSICS, 118 (10), 4365-4369 (2003). 
 An efficient orbital transformation method for electronic structure
 calculations.
 https://doi.org/10.1063/1.1543154

 Hartwigsen, C; Goedecker, S; Hutter, J. 
 PHYSICAL REVIEW B, 58 (7), 3641-3662 (1998). 
 Relativistic separable dual-space Gaussian pseudopotentials from H to Rn.
 https://doi.org/10.1103/PhysRevB.58.3641

 Lippert, G; Hutter, J; Parrinello, M. 
 MOLECULAR PHYSICS, 92 (3), 477-487 (1997). 
 A hybrid Gaussian and plane wave density functional scheme.
 https://doi.org/10.1080/002689797170220

 Perdew, JP; Burke, K; Ernzerhof, M. 
 PHYSICAL REVIEW LETTERS, 77 (18), 3865-3868 (1996). 
 Generalized gradient approximation made simple.
 https://doi.org/10.1103/PhysRevLett.77.3865

 Goedecker, S; Teter, M; Hutter, J. 
 PHYSICAL REVIEW B, 54 (3), 1703-1710 (1996). 
 Separable dual-space Gaussian pseudopotentials.
 https://doi.org/10.1103/PhysRevB.54.1703

 NOSE, S. JOURNAL OF CHEMICAL PHYSICS, 81 (1), 511-519 (1984). 
 A UNIFIED FORMULATION OF THE CONSTANT TEMPERATURE MOLECULAR-DYNAMICS
 METHODS.
 https://doi.org/10.1063/1.447334

 NOSE, S. MOLECULAR PHYSICS, 52 (2), 255-268 (1984). 
 A MOLECULAR-DYNAMICS METHOD FOR SIMULATIONS IN THE CANONICAL ENSEMBLE.
 https://doi.org/10.1080/00268978400101201


 -------------------------------------------------------------------------------
 -                                                                             -
 -                                T I M I N G                                  -
 -                                                                             -
 -------------------------------------------------------------------------------
 SUBROUTINE                       CALLS  ASD         SELF TIME        TOTAL TIME
                                MAXIMUM       AVERAGE  MAXIMUM  AVERAGE  MAXIMUM
 CP2K                                 1  1.0    0.017    0.019 1665.339 1665.343
 qs_mol_dyn_low                       1  2.0    0.027    0.032 1664.075 1664.076
 velocity_verlet                   1000  3.0    0.102    0.360 1635.902 1636.571
 qs_forces                         1001  4.0    0.059    0.066 1629.325 1629.331
 qs_energies                       1001  5.0    0.043    0.054 1441.873 1441.897
 scf_env_do_scf                    1001  6.0    0.036    0.196 1352.957 1352.968
 scf_env_do_scf_inner_loop         6961  7.0    0.196    2.156 1157.232 1158.343
 rebuild_ks_matrix                 7962  8.6    0.021    0.025 1063.628 1064.013
 qs_ks_build_kohn_sham_matrix      7962  9.6    0.799    0.880 1063.607 1063.988
 qs_ks_update_qs_env               7962  8.0    0.054    0.061  883.069  883.387
 pw_transfer                     125459 12.2    5.626    6.025  779.126  825.349
 fft_wrap_pw1pw2                 109535 13.3    0.902    0.995  768.897  815.262
 qs_vxc_create                     7962 10.6    0.097    0.108  780.803  782.358
 fft_wrap_pw1pw2_200              70703 14.4   42.861   46.884  731.659  779.369
 fft3d_ps                        109535 15.3  334.041  382.061  631.159  674.153
 xc_vxc_pw_create                  4982 11.4    8.061    9.134  571.547  573.089
 xc_rho_set_and_dset_create        7962 12.6    3.331    3.635  483.670  546.496
 qs_rho_update_rho                 7962  8.1    0.036    0.040  381.626  382.273
 calculate_rho_elec                7962  9.1    4.546    5.049  381.590  382.233
 density_rs2pw                     7962 10.1    0.309    0.345  319.816  331.815
 mp_alltoall_z22v                109535 17.3  244.007  304.931  244.007  304.931
 xc_functional_eval                7962 13.6    0.056    0.071  210.742  272.221
 pbe_lda_eval                      7962 14.6  210.686  272.174  210.686  272.174
 rs_pw_transfer                   53778 11.9    0.607    0.679  244.272  251.727
 xc_exc_calc                       2980 12.0    1.336    1.569  209.159  209.205
 yz_to_x                          52777 15.7   17.266   19.998  151.398  199.915
 init_scf_loop                     1001  7.0    0.018    0.020  193.829  193.834
 sum_up_and_integrate              4982 10.4    0.996    1.141  190.956  191.301
 integrate_v_rspace                4982 11.4    0.100    0.111  189.953  190.329
 qs_ks_update_qs_env_forces        1001  5.0    0.004    0.004  182.042  182.121
 x_to_yz                          56758 16.8   34.418   40.574  144.291  153.824
 potential_pw2rs                   4982 12.4    0.296    0.310  145.839  146.224
 rs_pw_transfer_RS2PW_200          8963 11.9   46.301   50.065  111.510  119.770
 grid_collocate_task_list          7962 10.1   45.950   91.858   45.950   91.858
 mp_waitany                      448380 13.6   78.949   88.959   78.949   88.959
 dbcsr_multiply_generic           92863 12.3    2.534    2.995   85.159   87.121
 mp_sum_d                        101221 12.6   57.484   87.059   57.484   87.059
 qs_scf_new_mos                    6961  8.0    0.034    0.042   75.274   75.399
 qs_scf_loop_do_ot                 6961  9.0    0.034    0.038   75.241   75.366
 ot_scf_mini                       6961 10.0    0.090    0.097   68.407   68.522
 init_scf_run                      1001  6.0    0.025    0.225   62.048   62.050
 scf_env_initial_rho_setup         1001  7.0    0.022    0.318   62.020   62.031
 rs_pw_transfer_PW2RS_200          5983 13.7   33.173   34.852   59.869   61.582
 wfi_extrapolate                   1001  8.0    0.051    0.054   59.928   59.948
 mp_waitall_1                   6153248 16.1   50.052   55.095   50.052   55.095
 pw_gather_p                      52777 14.7   45.854   47.715   45.854   47.715
 pw_scatter_p                     56758 15.8   45.827   46.894   45.827   46.894
 mp_alltoall_d11v                191179 13.2   39.827   45.342   39.827   45.342
 grid_integrate_task_list          4982 12.4    9.773   41.714    9.773   41.714
 rs_gather_matrices                4982 12.4    0.060    0.075   34.090   39.516
 ot_mini                           6961 11.0    0.029    0.032   39.230   39.335
 multiply_cannon                  92863 13.3    4.834    5.241   33.038   35.607
 -------------------------------------------------------------------------------

 The number of warnings for this run is : 2
 
 -------------------------------------------------------------------------------
  **** **** ******  **  PROGRAM ENDED AT                 2021-10-25 10:15:40.431
 ***** ** ***  *** **   PROGRAM RAN ON                                     node2
 **    ****   ******    PROGRAM RAN BY                                   lujunbo
 ***** **    ** ** **   PROGRAM PROCESS ID                                663727
  **** **  *******  **  PROGRAM STOPPED IN /home/lujunbo/WORK/deepmd/c2h6/mtd/tr
                                           ain_4_sys/cp2k_md/sys_2
