       8
 i =        0, time =        0.000, E =       -14.9507520376
  C         0.0000218817        0.0000370329       -0.0000080399
  C        -0.0000569215        0.0000153253       -0.0000505175
  H         0.0005559446       -0.0003400560        0.0002488641
  H         0.0005163265       -0.0001362968        0.0001225295
  H         0.0001623331       -0.0001248424        0.0004371924
  H        -0.0000166064       -0.0001207439        0.0002893650
  H        -0.0004515628       -0.0002549834       -0.0001748800
  H        -0.0003488975        0.0003530180       -0.0002252962
       8
 i =        1, time =        0.500, E =       -14.9508564372
  C        -0.0000004034        0.0000356896       -0.0000070235
  C        -0.0000342654        0.0000153030       -0.0000504559
  H         0.0005565001       -0.0001941885        0.0002471564
  H         0.0005140699       -0.0002031539        0.0000061091
  H         0.0001578495       -0.0001870305        0.0005424352
  H        -0.0000182951       -0.0002545015        0.0002885510
  H        -0.0004499713       -0.0001870376       -0.0002923606
  H        -0.0003479698        0.0004188010       -0.0001069453
       8
 i =        2, time =        1.000, E =       -14.9510607018
  C        -0.0000205432        0.0000318291       -0.0000040392
  C        -0.0000129296        0.0000154033       -0.0000504860
  H         0.0005509953       -0.0000447266        0.0002431489
  H         0.0004999323       -0.0002612544       -0.0000947403
  H         0.0001353800       -0.0002311632        0.0006124613
  H        -0.0000138884       -0.0003714014        0.0002874020
  H        -0.0004379452       -0.0001277009       -0.0003972025
  H        -0.0003374562        0.0004744584       -0.0000012761
       8
 i =        3, time =        1.500, E =       -14.9512644692
  C        -0.0000377424        0.0000256411        0.0000008129
  C         0.0000062731        0.0000156289       -0.0000506118
  H         0.0005367585        0.0000981896        0.0002368698
  H         0.0004719810       -0.0003064130       -0.0001727623
  H         0.0000931568       -0.0002535723        0.0006412154
  H        -0.0000010457       -0.0004630049        0.0002860945
  H        -0.0004133911       -0.0000813628       -0.0004820649
  H        -0.0003152292        0.0005159337        0.0000842062
       8
 i =        4, time =        2.000, E =       -14.9513704790
  C        -0.0000513954        0.0000174957        0.0000072888
  C         0.0000226713        0.0000159828       -0.0000508379
  H         0.0005114035        0.0002247009        0.0002284118
  H         0.0004289649       -0.0003352245       -0.0002221039
  H         0.0000307147       -0.0002522713        0.0006256866
  H         0.0000220734       -0.0005223636        0.0002848780
  H        -0.0003748175       -0.0000517252       -0.0005408867
  H        -0.0002797553        0.0005399980        0.0001432195
       8
 i =        5, time =        2.500, E =       -14.9513169122
  C        -0.0000611432        0.0000079640        0.0000149842
  C         0.0000357887        0.0000164666       -0.0000511688
  H         0.0004729718        0.0003257496        0.0002179250
  H         0.0003704821       -0.0003453654       -0.0002388773
  H        -0.0000507938       -0.0002274039        0.0005666675
  H         0.0000565983       -0.0005446422        0.0002840440
  H        -0.0003215124       -0.0000414626       -0.0005694208
  H        -0.0002302825        0.0005445438        0.0001712682
       8
 i =        6, time =        3.000, E =       -14.9511004777
  C        -0.0000669209       -0.0000021845        0.0000233425
  C         0.0000453951        0.0000170792       -0.0000516081
  H         0.0004200888        0.0003936938        0.0002056039
  H         0.0002971301       -0.0003358928       -0.0002217105
  H        -0.0001484025       -0.0001815302        0.0004692120
  H         0.0001027370       -0.0005277304        0.0002838842
  H        -0.0002537088       -0.0000518760       -0.0005657553
  H        -0.0001670153        0.0005288613        0.0001661996
       8
 i =        7, time =        3.500, E =       -14.9507810787
  C        -0.0000689836       -0.0000120217        0.0000316994
  C         0.0000515488        0.0000178148       -0.0000521572
  H         0.0003521317        0.0004230043        0.0001916690
  H         0.0002106032       -0.0003074769       -0.0001721677
  H        -0.0002573566       -0.0001196009        0.0003425426
  H         0.0001595999       -0.0004727342        0.0002846381
  H        -0.0001727078       -0.0000825954       -0.0005307306
  H        -0.0000912478        0.0004938479        0.0001286662
       8
 i =        8, time =        4.000, E =       -14.9504644796
  C        -0.0000678986       -0.0000205495        0.0000393645
  C         0.0000546162        0.0000186611       -0.0000528142
  H         0.0002694005        0.0004109906        0.0001763437
  H         0.0001137010       -0.0002624994       -0.0000949129
  H        -0.0003714266       -0.0000485248        0.0001992525
  H         0.0002251046       -0.0003842064        0.0002864358
  H        -0.0000809224       -0.0001314082       -0.0004681286
  H        -0.0000054140        0.0004420823        0.0000623624
       8
 i =        9, time =        4.500, E =       -14.9502671543
  C        -0.0000645008       -0.0000268312        0.0000457282
  C         0.0000552583        0.0000195973       -0.0000535720
  H         0.0001732702        0.0003584461        0.0001598329
  H         0.0000102138       -0.0002049507        0.0000025079
  H        -0.0004835091        0.0000236554        0.0000538344
  H         0.0002960128       -0.0002699811        0.0002892476
  H         0.0000181963       -0.0001942913       -0.0003845213
  H         0.0000869837        0.0003777032       -0.0000260901
       8
 i =       10, time =        5.000, E =       -14.9502756050
  C        -0.0000598123       -0.0000301423        0.0000503656
  C         0.0000543772        0.0000205930       -0.0000544171
  H         0.0000662822        0.0002700382        0.0001423077
  H        -0.0000953296       -0.0001400918        0.0001103259
  H        -0.0005864157        0.0000888367       -0.0000792000
  H         0.0003681341       -0.0001405323        0.0002928539
  H         0.0001203702       -0.0002656980       -0.0002887124
  H         0.0001815938        0.0003060639       -0.0001276834
       8
 i =       11, time =        5.500, E =       -14.9505152311
  C        -0.0000549383       -0.0000301023        0.0000531054
  C         0.0000530235        0.0000216077       -0.0000553291
  H        -0.0000478778        0.0001542514        0.0001238999
  H        -0.0001980350       -0.0000739012        0.0002175984
  H        -0.0006736843        0.0001399331       -0.0001871858
  H         0.0004366953       -0.0000078872        0.0002968445
  H         0.0002208378       -0.0003390966       -0.0001908024
  H         0.0002735717        0.0002331879       -0.0002319665
       8
 i =       12, time =        6.000, E =       -14.9509404967
  C        -0.0000509555       -0.0000267493        0.0000540433
  C         0.0000522770        0.0000225917       -0.0000562811
  H        -0.0001645595        0.0000227464        0.0001047121
  H        -0.0002930848       -0.0000123926        0.0003134811
  H        -0.0007402410        0.0001717174       -0.0002607461
  H         0.0004968298        0.0001157412        0.0003006551
  H         0.0003147859       -0.0004076859       -0.0001010168
  H         0.0003580316        0.0001651071       -0.0003282545
       8
 i =       13, time =        6.500, E =       -14.9514497811
  C        -0.0000488087       -0.0000205322        0.0000535000
  C         0.0000531210        0.0000234884       -0.0000572405
  H        -0.0002784975       -0.0001108660        0.0000848393
  H        -0.0003761797        0.0000390716        0.0003884846
  H        -0.0007828004        0.0001812788       -0.0002945571
  H         0.0005441030        0.0002193519        0.0003036339
  H         0.0003978029       -0.0004651637       -0.0000285111
  H         0.0004305192        0.0001072022       -0.0004068818
       8
 i =       14, time =        7.000, E =       -14.9519188410
  C        -0.0000492270       -0.0000122260        0.0000519414
  C         0.0000563330        0.0000242384       -0.0000581718
  H        -0.0003842964       -0.0002326624        0.0000643994
  H        -0.0004439044        0.0000763429        0.0004354796
  H        -0.0007999793        0.0001680782       -0.0002874222
  H         0.0005749794        0.0002943286        0.0003051262
  H         0.0004662753       -0.0005064023        0.0000196241
  H         0.0004874247        0.0000636658       -0.0004602638
       8
 i =       15, time =        7.500, E =       -14.9522403298
  C        -0.0000526686       -0.0000027944        0.0000498883
  C         0.0000624082        0.0000247835       -0.0000590393
  H        -0.0004769693       -0.0003301341        0.0000435605
  H        -0.0004939641        0.0000968353        0.0004502949
  H        -0.0007921769        0.0001336912       -0.0002418164
  H         0.0005871502        0.0003351951        0.0003045598
  H         0.0005176680       -0.0005279220        0.0000389939
  H         0.0005262720        0.0000371688       -0.0004835945
       8
 i =       16, time =        8.000, E =       -14.9523555769
  C        -0.0000592952        0.0000067590        0.0000478407
  C         0.0000715250        0.0000250717       -0.0000598094
  H        -0.0005524248       -0.0003936417        0.0000225600
  H        -0.0005252763        0.0000996361        0.0004318734
  H        -0.0007613087        0.0000813768       -0.0001631389
  H         0.0005796859        0.0003398850        0.0003015146
  H         0.0005506604       -0.0005281091        0.0000281156
  H         0.0005458530        0.0000287563       -0.0004751103
       8
 i =       17, time =        8.500, E =       -14.9522688604
  C        -0.0000689749        0.0000155153        0.0000462267
  C         0.0000835498        0.0000250607       -0.0000604527
  H        -0.0006078152       -0.0004173325        0.0000017083
  H        -0.0005379323        0.0000854107        0.0003820545
  H        -0.0007104821        0.0000155982       -0.0000588943
  H         0.0005530187        0.0003095877        0.0002957671
  H         0.0005651422       -0.0005071940       -0.0000117356
  H         0.0005462160        0.0000379408       -0.0004359695
       8
 i =       18, time =        9.000, E =       -14.9520413074
  C        -0.0000813082        0.0000227206        0.0000453803
  C         0.0000980706        0.0000247211       -0.0000609455
  H        -0.0006416976       -0.0003994266       -0.0000186234
  H        -0.0005330641        0.0000561686        0.0003051166
  H        -0.0006436764       -0.0000584170        0.0000620607
  H         0.0005087938        0.0002482909        0.0002873095
  H         0.0005621024       -0.0004670506       -0.0000769336
  H         0.0005285396        0.0000629314       -0.0003698533
       8
 i =       19, time =        9.500, E =       -14.9517684089
  C        -0.0000956702        0.0000278192        0.0000455387
  C         0.0001144487        0.0000240371       -0.0000612698
  H        -0.0006540176       -0.0003419570       -0.0000380250
  H        -0.0005126606        0.0000149632        0.0002072029
  H        -0.0005654561       -0.0001350434        0.0001901411
  H         0.0004496462        0.0001621711        0.0002763456
  H         0.0005434520       -0.0004108915       -0.0001620333
  H         0.0004949398        0.0001009270       -0.0002824268
       8
 i =       20, time =       10.000, E =       -14.9515494008
  C        -0.0001112614        0.0000304520        0.0000468508
  C         0.0001318762        0.0000230072       -0.0000614131
  H        -0.0006459614       -0.0002501508       -0.0000560763
  H        -0.0004793671       -0.0000344150        0.0000957456
  H        -0.0004807240       -0.0002085495        0.0003155352
  H         0.0003789498        0.0000589602        0.0002632707
  H         0.0005118208       -0.0003429323       -0.0002603230
  H         0.0004482510        0.0001484179       -0.0001807718
       8
 i =       21, time =       10.500, E =       -14.9514577154
  C        -0.0001271619        0.0000304355        0.0000493875
  C         0.0001494328        0.0000216430       -0.0000613676
  H        -0.0006197371       -0.0001316590       -0.0000723757
  H        -0.0004362922       -0.0000877192       -0.0000210581
  H        -0.0003944926       -0.0002733437        0.0004286333
  H         0.0003005696       -0.0000526465        0.0002486435
  H         0.0004703553       -0.0002680662       -0.0003643334
  H         0.0003918089        0.0002014640       -0.0000728544
       8
 i =       22, time =       11.000, E =       -14.9515202688
  C        -0.0001423881        0.0000277388        0.0000531474
  C         0.0001661389        0.0000199685       -0.0000611293
  H        -0.0005783385        0.0000042084       -0.0000865659
  H        -0.0003868281       -0.0001404939       -0.0001347134
  H        -0.0003116475       -0.0003242127        0.0005204502
  H         0.0002186323       -0.0001635188        0.0002331516
  H         0.0004225287       -0.0001915666       -0.0004662853
  H         0.0003292478        0.0002559387        0.0000329517
       8
 i =       23, time =       11.500, E =       -14.9517104265
  C        -0.0001559501        0.0000224680        0.0000580546
  C         0.0001810074        0.0000180180       -0.0000606978
  H        -0.0005253229        0.0001471599       -0.0000983572
  H        -0.0003344796       -0.0001882999       -0.0002368579
  H        -0.0002366729       -0.0003565899        0.0005831022
  H         0.0001373103       -0.0002645706        0.0002175740
  H         0.0003719637       -0.0001188101       -0.0005584908
  H         0.0002643101        0.0003077490        0.0001283032
       8
 i =       24, time =       12.000, E =       -14.9519561454
  C        -0.0001669142        0.0000148635        0.0000639484
  C         0.0001930954        0.0000158344       -0.0000600755
  H        -0.0004646168        0.0002865013       -0.0001075471
  H        -0.0002826875       -0.0002269363       -0.0003196938
  H        -0.0001733245       -0.0003668738        0.0006103756
  H         0.0000606065       -0.0003472335        0.0002027366
  H         0.0003222545       -0.0000549988       -0.0006337442
  H         0.0002006543        0.0003530488        0.0002053180
       8
 i =       25, time =       12.500, E =       -14.9521615235
  C        -0.0001744698        0.0000053081        0.0000705702
  C         0.0002015610        0.0000134672       -0.0000592681
  H        -0.0004003368        0.0004116538       -0.0001140381
  H        -0.0002346336       -0.0002526823       -0.0003764550
  H        -0.0001242540       -0.0003527931        0.0005983785
  H        -0.0000078731       -0.0004039625        0.0001894588
  H         0.0002767738       -0.0000048596       -0.0006857332
  H         0.0001416498        0.0003884619        0.0002570397
       8
 i =       26, time =       13.000, E =       -14.9522364810
  C        -0.0001779987       -0.0000056623        0.0000775532
  C         0.0002057246        0.0000109702       -0.0000582847
  H        -0.0003366077        0.0005126690       -0.0001178513
  H        -0.0001930203       -0.0002625674       -0.0004019256
  H        -0.0000906341       -0.0003137764        0.0005461949
  H        -0.0000651652       -0.0004287949        0.0001784883
  H         0.0002384564        0.0000276946       -0.0007094869
  H         0.0000901515        0.0004113240        0.0002779533
       8
 i =       27, time =       13.500, E =       -14.9521266116
  C        -0.0001771412       -0.0000173567        0.0000844269
  C         0.0002051339        0.0000083983       -0.0000571380
  H        -0.0002773527        0.0005807988       -0.0001191343
  H        -0.0001598291       -0.0002546657       -0.0003929859
  H        -0.0000718648       -0.0002512443        0.0004563948
  H        -0.0001092040       -0.0004179449        0.0001704244
  H         0.0002095619        0.0000399340       -0.0007018520
  H         0.0000482592        0.0004199346        0.0002645348
       8
 i =       28, time =       14.000, E =       -14.9518338104
  C        -0.0001718474       -0.0000289495        0.0000906443
  C         0.0001996242        0.0000058049       -0.0000558449
  H        -0.0002260419        0.0006091474       -0.0001181593
  H        -0.0001360864       -0.0002283817       -0.0003491184
  H        -0.0000654689       -0.0001687230        0.0003352126
  H        -0.0001390555       -0.0003703663        0.0001656351
  H         0.0001914358        0.0000306770       -0.0006619400
  H         0.0000170882        0.0004137885        0.0002157789
       8
 i =       29, time =       14.500, E =       -14.9514197850
  C        -0.0001624009       -0.0000395367        0.0000956382
  C         0.0001893615        0.0000032383       -0.0000544259
  H        -0.0001853959        0.0005933914       -0.0001153064
  H        -0.0001216807       -0.0001846731       -0.0002727646
  H        -0.0000672719       -0.0000716821        0.0001922262
  H        -0.0001550825       -0.0002881730        0.0001641817
  H         0.0001843091        0.0000005873       -0.0005914601
  H        -0.0000034044        0.0003937381        0.0001336022
       8
 i =       30, time =       15.000, E =       -14.9509894099
  C        -0.0001494056       -0.0000482276        0.0000988986
  C         0.0001748575        0.0000007384       -0.0000529042
  H        -0.0001570692        0.0005324962       -0.0001110302
  H        -0.0001152894       -0.0001261422       -0.0001694005
  H        -0.0000718998        0.0000329431        0.0000394663
  H        -0.0001589836       -0.0001767819        0.0001657656
  H         0.0001871920       -0.0000476809       -0.0004948329
  H        -0.0000144856        0.0003620291        0.0000229993
       8
 i =       31, time =       15.500, E =       -14.9506579628
  C        -0.0001337321       -0.0000542651        0.0001000567
  C         0.0001569397       -0.0000016648       -0.0000513041
  H        -0.0001413666        0.0004292836       -0.0001058088
  H        -0.0001144661       -0.0000569308       -0.0000472303
  H        -0.0000735302        0.0001374951       -0.0001099450
  H        -0.0001536608       -0.0000446529        0.0001697187
  H         0.0001979080       -0.0001095706       -0.0003789862
  H        -0.0000185550        0.0003221579       -0.0001081664
       8
 i =       32, time =       16.000, E =       -14.9505129688
  C        -0.0001164296       -0.0000571460        0.0000989504
  C         0.0001366778       -0.0000039525       -0.0000496492
  H        -0.0001370710        0.0002906630       -0.0001000838
  H        -0.0001159106        0.0000176137        0.0000835407
  H        -0.0000667433        0.0002344693       -0.0002433699
  H        -0.0001429025        0.0000974248        0.0001750489
  H         0.0002133040       -0.0001789862       -0.0002527935
  H        -0.0000188771        0.0002785367       -0.0002497917
       8
 i =       33, time =       16.500, E =       -14.9505844214
  C        -0.0000986147       -0.0000567125        0.0000956515
  C         0.0001152681       -0.0000061152       -0.0000479604
  H        -0.0001414692        0.0001273406       -0.0000942025
  H        -0.0001158978        0.0000914772        0.0002117829
  H        -0.0000472812        0.0003173419       -0.0003501154
  H        -0.0001309147        0.0002374418        0.0001805425
  H         0.0002296239       -0.0002489183       -0.0001261925
  H        -0.0000191615        0.0002359970       -0.0003905368
       8
 i =       34, time =       17.000, E =       -14.9508347055
  C        -0.0000813548       -0.0000531840        0.0000904460
  C         0.0000938986       -0.0000081502       -0.0000462545
  H        -0.0001506268       -0.0000470864       -0.0000883768
  H        -0.0001107908        0.0001586415        0.0003266907
  H        -0.0000125574        0.0003811941       -0.0004224956
  H        -0.0001217823        0.0003635052        0.0001849091
  H         0.0002429902       -0.0003122351       -0.0000091123
  H        -0.0000230623        0.0001992128       -0.0005190543
       8
 i =       35, time =       17.500, E =       -14.9511722232
  C        -0.0000655606       -0.0000471187        0.0000837772
  C         0.0000736176       -0.0000100568       -0.0000445444
  H        -0.0001599038       -0.0002175907       -0.0000826718
  H        -0.0000975360        0.0002137496        0.0004189715
  H         0.0000381506        0.0004230463       -0.0004563499
  H        -0.0001189634        0.0004651583        0.0001869425
  H         0.0002499041       -0.0003625012        0.0000895983
  H        -0.0000336909        0.0001721521       -0.0006252249
       8
 i =       36, time =       18.000, E =       -14.9514834949
  C        -0.0000519025       -0.0000393145        0.0000761699
  C         0.0000552298       -0.0000118330       -0.0000428387
  H        -0.0001646206       -0.0003694870       -0.0000770277
  H        -0.0000740443        0.0002526510        0.0004817630
  H         0.0001037977        0.0004419066       -0.0004510378
  H        -0.0001249081        0.0005344458        0.0001856660
  H         0.0002476680       -0.0003946709        0.0001630503
  H        -0.0000532393        0.0001576569       -0.0007011754
       8
 i =       37, time =       18.500, E =       -14.9516714713
  C        -0.0000407590       -0.0000306787        0.0000681589
  C         0.0000392370       -0.0000134721       -0.0000411436
  H        -0.0001607307       -0.0004901537       -0.0000713063
  H        -0.0000393978        0.0002727451        0.0005111471
  H         0.0001818660        0.0004385992       -0.0004090461
  H        -0.0001408591        0.0005665673        0.0001804366
  H         0.0002346629       -0.0004055446        0.0002068688
  H        -0.0000827673        0.0001572133       -0.0007419259
       8
 i =       38, time =       19.000, E =       -14.9516861455
  C        -0.0000322023       -0.0000221014        0.0000602350
  C         0.0000258242       -0.0000149625       -0.0000394627
  H        -0.0001453524       -0.0005703588       -0.0000653508
  H         0.0000061230        0.0002730961        0.0005062474
  H         0.0002687505        0.0004154653       -0.0003353853
  H        -0.0001668353        0.0005600732        0.0001709976
  H         0.0002104524       -0.0003939469        0.0002193788
  H        -0.0001221679        0.0001709215       -0.0007456205
       8
 i =       39, time =       19.500, E =       -14.9515375427
  C        -0.0000260174       -0.0000143588        0.0000528147
  C         0.0000148856       -0.0000162877       -0.0000377987
  H        -0.0001170645       -0.0006049756       -0.0000590393
  H         0.0000611607        0.0002543503        0.0004689834
  H         0.0003601494        0.0003760175       -0.0002369267
  H        -0.0002017615        0.0005166673        0.0001574799
  H         0.0001757339       -0.0003606548        0.0002014705
  H        -0.0001702766        0.0001976267       -0.0007133873
       8
 i =       40, time =       20.000, E =       -14.9512885391
  C        -0.0000217479       -0.0000080604        0.0000462302
  C         0.0000060748       -0.0000174290       -0.0000361528
  H        -0.0000759500       -0.0005930639       -0.0000523239
  H         0.0001234916        0.0002185165        0.0004036094
  H         0.0004514077        0.0003246047       -0.0001217827
  H        -0.0002436863        0.0004407426        0.0001403643
  H         0.0001321814       -0.0003081442        0.0001562409
  H        -0.0002250727        0.0002351520       -0.0006489402
       8
 i =       41, time =       20.500, E =       -14.9510320004
  C        -0.0000187557       -0.0000036336        0.0000407318
  C        -0.0000011330       -0.0000183675       -0.0000345249
  H        -0.0000234385       -0.0005374592       -0.0000452492
  H         0.0001902707        0.0001686785        0.0003161621
  H         0.0005377990        0.0002661124        0.0000012311
  H        -0.0002900331        0.0003387901        0.0001204212
  H         0.0000822316       -0.0002402420        0.0000885230
  H        -0.0002839180        0.0002805734       -0.0005580477
       8
 i =       42, time =       21.000, E =       -14.9508608068
  C        -0.0000162868       -0.0000013352        0.0000364949
  C        -0.0000073792       -0.0000190864       -0.0000329131
  H         0.0000379650       -0.0004440754       -0.0000379539
  H         0.0002582716        0.0001086954        0.0002139095
  H         0.0006147552        0.0002056956        0.0001230624
  H        -0.0003378412        0.0002187854        0.0000986411
  H         0.0000288584       -0.0001617546        0.0000043943
  H        -0.0003437911        0.0003304869       -0.0004479710
       8
 i =       43, time =       21.500, E =       -14.9508399978
  C        -0.0000135344       -0.0000012727        0.0000336253
  C        -0.0000133653       -0.0000195730       -0.0000313142
  H         0.0001049877       -0.0003211226       -0.0000306602
  H         0.0003240991        0.0000429195        0.0001048493
  H         0.0006780652        0.0001485262        0.0002348518
  H        -0.0003839781        0.0000896194        0.0000761644
  H        -0.0000246388       -0.0000781139       -0.0000892826
  H        -0.0004014965        0.0003812482       -0.0003269343
       8
 i =       44, time =       22.000, E =       -14.9509882474
  C        -0.0000096975       -0.0000034218        0.0000321577
  C        -0.0000198048       -0.0000198192       -0.0000297228
  H         0.0001738749       -0.0001783733       -0.0000236586
  H         0.0003843741       -0.0000240589       -0.0000027397
  H         0.0007240694        0.0000995272        0.0003283771
  H        -0.0004253218       -0.0000394161        0.0000542157
  H        -0.0000748260        0.0000049436       -0.0001852723
  H        -0.0004538447        0.0004291796       -0.0002036435
       8
 i =       45, time =       22.500, E =       -14.9512728212
  C        -0.0000040341       -0.0000076340        0.0000320486
  C        -0.0000273790       -0.0000198219       -0.0000281330
  H         0.0002406318       -0.0000265343       -0.0000172901
  H         0.0004359003       -0.0000876495       -0.0001007158
  H         0.0007498696        0.0000630683        0.0003965520
  H        -0.0004589200       -0.0001591087        0.0000340381
  H        -0.0001183121        0.0000816776       -0.0002763462
  H        -0.0004978120        0.0004707536       -0.0000868370
       8
 i =       46, time =       23.000, E =       -14.9516188410
  C         0.0000040894       -0.0000136318        0.0000331621
  C        -0.0000366970       -0.0000195825       -0.0000265384
  H         0.0003012226        0.0001232873       -0.0000119301
  H         0.0004758254       -0.0001435031       -0.0001815007
  H         0.0007535549        0.0000426127        0.0004339914
  H        -0.0004821432       -0.0002608054        0.0000168256
  H        -0.0001519258        0.0001466435       -0.0003556578
  H        -0.0005306920        0.0005027698        0.0000151673
       8
 i =       47, time =       23.500, E =       -14.9519305186
  C         0.0000151504       -0.0000209955        0.0000352581
  C        -0.0000482534       -0.0000191060       -0.0000249342
  H         0.0003517493        0.0002600753       -0.0000079713
  H         0.0005018093       -0.0001877715       -0.0002385421
  H         0.0007344232        0.0000403304        0.0004376161
  H        -0.0004928411       -0.0003369307        0.0000036481
  H        -0.0001729075        0.0001950167       -0.0004171443
  H        -0.0005502526        0.0005225370        0.0000949624
       8
 i =       48, time =       24.000, E =       -14.9521191960
  C         0.0000294275       -0.0000291524        0.0000379870
  C        -0.0000623845       -0.0000183993       -0.0000233193
  H         0.0003886307        0.0003734258       -0.0000058055
  H         0.0005121988       -0.0002173953       -0.0002668243
  H         0.0006931573        0.0000567325        0.0004071998
  H        -0.0004895060       -0.0003815527       -0.0000046330
  H        -0.0001791220        0.0002229492       -0.0004559643
  H        -0.0005548978        0.0005280650        0.0001465956
       8
 i =       49, time =       24.500, E =       -14.9521307576
  C         0.0000469635       -0.0000373808        0.0000409041
  C        -0.0000792229       -0.0000174693       -0.0000216980
  H         0.0004088100        0.0004541610       -0.0000058015
  H         0.0005062004       -0.0002304072       -0.0002633984
  H         0.0006318954        0.0000904116        0.0003457164
  H        -0.0004714341       -0.0003909721       -0.0000074541
  H        -0.0001692862        0.0002279467       -0.0004689584
  H        -0.0005438293        0.0005182552        0.0001661471
       8
 i =       50, time =       25.000, E =       -14.9519642410
  C         0.0000675412       -0.0000448446        0.0000435068
  C        -0.0000986577       -0.0000163213       -0.0000200831
  H         0.0004100000        0.0004950668       -0.0000082760
  H         0.0004840248       -0.0002262132       -0.0002278609
  H         0.0005541414        0.0001379894        0.0002593340
  H        -0.0004388635       -0.0003642630       -0.0000046331