       8
 i =        0, time =        0.000, E =       -14.9507520376
  C        -0.0244581449        0.0000230895        0.0000068778
  C         0.0243353868       -0.0000528350       -0.0000030564
  H         0.0003638406        0.0125148333       -0.0000018360
  H         0.0003771104       -0.0062580727       -0.0108429168
  H         0.0003801923       -0.0062567250        0.0108402904
  H        -0.0003677624       -0.0124610956        0.0000011472
  H        -0.0003568904        0.0062697569       -0.0108634492
  H        -0.0003578411        0.0062675051        0.0108629393
       8
 i =        1, time =        0.500, E =       -14.9508564372
  C        -0.0227007650       -0.0027018509        0.0021116708
  C         0.0234496844        0.0000758247       -0.0000980982
  H        -0.0000509319        0.0133138958       -0.0002062705
  H        -0.0005799243       -0.0056927928       -0.0098289321
  H        -0.0011156218       -0.0048588047        0.0080578225
  H         0.0000608369       -0.0113898781       -0.0000346035
  H         0.0004662805        0.0057242185       -0.0101115955
  H         0.0003886139        0.0055756431        0.0101129329
       8
 i =        2, time =        1.000, E =       -14.9510607018
  C        -0.0200113996       -0.0053205057        0.0041846932
  C         0.0216390776        0.0002073369       -0.0001981379
  H        -0.0007135944        0.0132105159       -0.0004113847
  H        -0.0017373653       -0.0047258013       -0.0081167127
  H        -0.0028222096       -0.0030677355        0.0046143247
  H         0.0007163484       -0.0095130013       -0.0000583206
  H         0.0015000143        0.0047635266       -0.0086599870
  H         0.0013479429        0.0044915168        0.0086514832
       8
 i =        3, time =        1.500, E =       -14.9512644692
  C        -0.0165587283       -0.0076546518        0.0060864639
  C         0.0190241290        0.0003427671       -0.0003034951
  H        -0.0016051828        0.0122068952       -0.0006112392
  H        -0.0030421064       -0.0034130199       -0.0058058659
  H        -0.0046394669       -0.0010106054        0.0007419937
  H         0.0015638590       -0.0069346067       -0.0000622453
  H         0.0026990367        0.0034334571       -0.0065979643
  H         0.0024761510        0.0030749669        0.0065613413
       8
 i =        4, time =        2.000, E =       -14.9513704790
  C        -0.0125736285       -0.0094987298        0.0076511218
  C         0.0157818761        0.0004813706       -0.0004145577
  H        -0.0026950321        0.0103475686       -0.0008003750
  H        -0.0044269231       -0.0018358553       -0.0030439456
  H        -0.0064367024        0.0011418610       -0.0032520918
  H         0.0025503023       -0.0038127861       -0.0000411014
  H         0.0040025232        0.0018090585       -0.0040614201
  H         0.0037125758        0.0014119075        0.0039747545
       8
 i =        5, time =        2.500, E =       -14.9513169122
  C        -0.0083453830       -0.0106322072        0.0087040190
  C         0.0121457493        0.0006211683       -0.0005305795
  H        -0.0039394023        0.0077270111       -0.0009742532
  H        -0.0058092802       -0.0001036973       -0.0000305767
  H        -0.0080575574        0.0031825810       -0.0070004987
  H         0.0036031829       -0.0003621823        0.0000071325
  H         0.0053339076       -0.0000033426       -0.0012343274
  H         0.0049800050       -0.0003858687        0.0010748045
       8
 i =        6, time =        3.000, E =       -14.9511004777
  C        -0.0042050381       -0.0108521270        0.0090952701
  C         0.0084015002        0.0007580199       -0.0006494622
  H        -0.0052799424        0.0044983717       -0.0011298366
  H        -0.0070948791        0.0016489051        0.0029885680
  H        -0.0093354559        0.0048893138       -0.0101136387
  H         0.0046316111        0.0031501997        0.0000801697
  H         0.0066027136       -0.0018669153        0.0016546844
  H         0.0061863996       -0.0021834072       -0.0019071120
       8
 i =        7, time =        3.500, E =       -14.9507810787
  C        -0.0004970392       -0.0100215837        0.0087425025
  C         0.0048716792        0.0008857620       -0.0007678144
  H        -0.0066425169        0.0008800495       -0.0012658458
  H        -0.0081831536        0.0032705814        0.0057379973
  H        -0.0101171933        0.0060583261       -0.0122382692
  H         0.0055310826        0.0064212480        0.0001706341
  H         0.0077096484       -0.0036218404        0.0043466154
  H         0.0072301240       -0.0038310406       -0.0047048215
       8
 i =        8, time =        4.000, E =       -14.9504644796
  C         0.0024604003       -0.0081232662        0.0076689196
  C         0.0018859738        0.0009962997       -0.0008808874
  H        -0.0079373154       -0.0028444550       -0.0013830114
  H        -0.0089769753        0.0046081933        0.0079410837
  H        -0.0102907186        0.0065426451       -0.0131237707
  H         0.0061930117        0.0091407184        0.0002662527
  H         0.0085553761       -0.0050998047        0.0065772482
  H         0.0080090751       -0.0051793064       -0.0070430717
       8
 i =        9, time =        4.500, E =       -14.9502671543
  C         0.0044157728       -0.0052987996        0.0060185091
  C        -0.0002589366        0.0010798488       -0.0009826896
  H        -0.0090619503       -0.0063397765       -0.0014836578
  H        -0.0093951190        0.0055272052        0.0093589978
  H        -0.0098089142        0.0062840690       -0.0126762493
  H         0.0065188519        0.0110322491        0.0003509627
  H         0.0090525819       -0.0061455683        0.0081121912
  H         0.0084334908       -0.0060985488       -0.0086741073
       8
 i =       10, time =        5.000, E =       -14.9502756050
  C         0.0052181686       -0.0018519174        0.0040356967
  C        -0.0013446095        0.0011257702       -0.0010664730
  H        -0.0099095320       -0.0092503890       -0.0015710784
  H        -0.0093849005        0.0059336021        0.0098309515
  H        -0.0087005114        0.0053261152       -0.0109789164
  H         0.0064360807        0.0118978036        0.0004072662
  H         0.0091391754       -0.0066412594        0.0087846755
  H         0.0084397697       -0.0064994712       -0.0094174967
       8
 i =       11, time =        5.500, E =       -14.9505152311
  C         0.0048351659        0.0017939071        0.0020130247
  C        -0.0012687644        0.0011235969       -0.0011254163
  H        -0.0103815223       -0.0112492398       -0.0016484588
  H        -0.0089317393        0.0057908672        0.0093044733
  H        -0.0070639272        0.0038029520       -0.0082711097
  H         0.0059122355        0.0116535917        0.0004193120
  H         0.0087891526       -0.0065272589        0.0085259427
  H         0.0080019526       -0.0063488766       -0.0091928007
       8
 i =       12, time =        6.000, E =       -14.9509404967
  C         0.0033528560        0.0051755430        0.0002256760
  C        -0.0000651208        0.0010647099       -0.0011535695
  H        -0.0104034475       -0.0120941015       -0.0017175504
  H        -0.0080626135        0.0051267739        0.0078458313
  H        -0.0050471409        0.0019089835       -0.0048944133
  H         0.0049623413        0.0103456899        0.0003760089
  H         0.0080181236       -0.0058135324        0.0073780810
  H         0.0071374967       -0.0056755933       -0.0080353068
       8
 i =       13, time =        6.500, E =       -14.9514497811
  C         0.0009595175        0.0078830069       -0.0011226855
  C         0.0021018703        0.0009436981       -0.0011467665
  H        -0.0099396753       -0.0116763260       -0.0017777817
  H        -0.0068421814        0.0040275819        0.0056269906
  H        -0.0028205564       -0.0001392716       -0.0012263438
  H         0.0036478511        0.0081400980        0.0002732375
  H         0.0068814046       -0.0045774822        0.0054859966
  H         0.0059052079       -0.0045645225       -0.0060882942
       8
 i =       14, time =        7.000, E =       -14.9519188410
  C        -0.0020809328        0.0096340662       -0.0019260259
  C         0.0049650888        0.0007595664       -0.0011032214
  H        -0.0090023179       -0.0100453315       -0.0018258918
  H        -0.0053628046        0.0026215990        0.0028935378
  H        -0.0005522175       -0.0021371144        0.0023775271
  H         0.0020666213        0.0052924184        0.0001146670
  H         0.0054653684       -0.0029494314        0.0030694802
  H         0.0043961072       -0.0031407862       -0.0035764006
       8
 i =       15, time =        7.500, E =       -14.9522403298
  C        -0.0054612231        0.0103087471       -0.0021718033
  C         0.0081976118        0.0005161469       -0.0010236901
  H        -0.0076510894       -0.0073993858       -0.0018564185
  H        -0.0037308449        0.0010573298       -0.0000762873
  H         0.0016095880       -0.0039135888        0.0056205257
  H         0.0003377221        0.0021030544       -0.0000890916
  H         0.0038748149       -0.0010904694        0.0003861667
  H         0.0027199389       -0.0015488743       -0.0007666937
       8
 i =       16, time =        8.000, E =       -14.9523555769
  C        -0.0088625531        0.0099393677       -0.0019163557
  C         0.0114576450        0.0002216975       -0.0009111314
  H        -0.0059838057       -0.0040459445       -0.0018627947
  H        -0.0020542190       -0.0005173024       -0.0030095358
  H         0.0035450599       -0.0053406024        0.0082796854
  H        -0.0014145778       -0.0011245984       -0.0003223721
  H         0.0022194618        0.0008308461       -0.0023056940
  H         0.0009909366        0.0000674510        0.0020694682
       8
 i =       17, time =        8.500, E =       -14.9522688604
  C        -0.0119824689        0.0086690515       -0.0012536857
  C         0.0144261601       -0.0001120792       -0.0007700661
  H        -0.0041210783       -0.0003458976       -0.0018387668
  H        -0.0004319379       -0.0019705247       -0.0056662654
  H         0.0051637268       -0.0063317537        0.0102032480
  H        -0.0030745836       -0.0041172579       -0.0005667002
  H         0.0006029576        0.0026573475       -0.0047752874
  H        -0.0006837816        0.0015801678        0.0046864374
       8
 i =       18, time =        9.000, E =       -14.9520413074
  C        -0.0145554433        0.0066991610       -0.0002887309
  C         0.0168313645       -0.0004712123       -0.0006059128
  H        -0.0021891877        0.0033416877       -0.0017796130
  H         0.0010515876       -0.0031955371       -0.0078537864
  H         0.0064019826       -0.0068362449        0.0113004409
  H        -0.0045438786       -0.0066518436       -0.0008030299
  H        -0.0008846508        0.0042556223       -0.0068357268
  H        -0.0022120042        0.0028857300        0.0068825303
       8
 i =       19, time =        9.500, E =       -14.9517684089
  C        -0.0163659677        0.0042436394        0.0008796106
  C         0.0184607126       -0.0008408571       -0.0004242976
  H        -0.0003063455        0.0067003492       -0.0016828804
  H         0.0023292549       -0.0041130471       -0.0094322035
  H         0.0072188012       -0.0068316854        0.0115286424
  H        -0.0057452926       -0.0085614830       -0.0010132793
  H        -0.0021704295        0.0055212416       -0.0083492864
  H        -0.0035200614        0.0039075878        0.0085061135
       8
 i =       20, time =       10.000, E =       -14.9515494008
  C        -0.0172548208        0.0015004729        0.0021644963
  C         0.0191630645       -0.0012063032       -0.0002305960
  H         0.0014261200        0.0094782767       -0.0015488236
  H         0.0033511027       -0.0046698787       -0.0103094125
  H         0.0075930897       -0.0063184999        0.0108849185
  H        -0.0066236863       -0.0097337639       -0.0011814287
  H        -0.0031992165        0.0063791039       -0.0092257502
  H        -0.0045534005        0.0045950760        0.0094543819
       8
 i =       21, time =       10.500, E =       -14.9514577154
  C        -0.0171215336       -0.0013584587        0.0034888426
  C         0.0188459481       -0.0015537964       -0.0000296832
  H         0.0029272783        0.0114935656       -0.0013801272
  H         0.0040832867       -0.0048360837       -0.0104372252
  H         0.0075233188       -0.0053178275        0.0094026310
  H        -0.0071447133       -0.0101056618       -0.0012941106
  H        -0.0039328415        0.0067812726       -0.0094170917
  H        -0.0052757938        0.0049205410        0.0096688421
       8
 i =       22, time =       11.000, E =       -14.9515202688
  C        -0.0159262033       -0.0041830978        0.0047776732
  C         0.0174723226       -0.0018710734        0.0001741337
  H         0.0041366639        0.0126288879       -0.0011817786
  H         0.0045070506       -0.0046023033       -0.0098063617
  H         0.0070302288       -0.0038729481        0.0071544383
  H        -0.0072935804       -0.0096580753       -0.0013410456
  H        -0.0043491670        0.0067050296       -0.0089124825
  H        -0.0056680663        0.0048766260        0.0091310536
       8
 i =       23, time =       11.500, E =       -14.9517104265
  C        -0.0136923370       -0.0068329205        0.0059488897
  C         0.0150593024       -0.0021477184        0.0003770219
  H         0.0050122564        0.0128222578       -0.0009606673
  H         0.0046188808       -0.0039786500       -0.0084453630
  H         0.0061613269       -0.0020531605        0.0042594922
  H        -0.0070744928       -0.0084135277       -0.0013155736
  H        -0.0044414078        0.0061517114       -0.0077356608
  H        -0.0057278616        0.0044749408        0.0078604481
       8
 i =       24, time =       12.000, E =       -14.9519561454
  C        -0.0105117329       -0.0091632660        0.0069060464
  C         0.0116807384       -0.0023754809        0.0005754746
  H         0.0055282889        0.0120595073       -0.0007254075
  H         0.0044316881       -0.0029955056       -0.0064223018
  H         0.0049963261        0.0000410974        0.0008923415
  H        -0.0065113092       -0.0064374219       -0.0012153570
  H        -0.0042192895        0.0051482341       -0.0059455511
  H        -0.0054704606        0.0037461922        0.0059157114
       8
 i =       25, time =       12.500, E =       -14.9521615235
  C        -0.0065488387       -0.0110165883        0.0075372729
  C         0.0074721537       -0.0025485496        0.0007661000
  H         0.0056748642        0.0103706854       -0.0004859981
  H         0.0039769972       -0.0017058855       -0.0038490159
  H         0.0036500657        0.0022754882       -0.0027116923
  H        -0.0056490648       -0.0038424352       -0.0010434166
  H        -0.0037107560        0.0037498138       -0.0036390131
  H        -0.0049303732        0.0027416955        0.0033990751
       8
 i =       26, time =       13.000, E =       -14.9522364810
  C        -0.0020414703       -0.0122242966        0.0077240189
  C         0.0026361265       -0.0026638808        0.0009454222
  H         0.0054590673        0.0078327635       -0.0002534436
  H         0.0033073660       -0.0001882077       -0.0008856590
  H         0.0022697252        0.0044838510       -0.0062615151
  H        -0.0045555040       -0.0007932211       -0.0008092122
  H        -0.0029644194        0.0020436136       -0.0009541626
  H        -0.0041632830        0.0015349301        0.0004608743
       8
 i =       27, time =       13.500, E =       -14.9521266116
  C         0.0027078203       -0.0126235175        0.0073616156
  C        -0.0025567748       -0.0027216372        0.0011098893
  H         0.0049082217        0.0045762835       -0.0000390500
  H         0.0024973566        0.0014523662        0.0022589106
  H         0.0010228598        0.0064793228       -0.0094303594
  H        -0.0033209470        0.0024919873       -0.0005295476
  H        -0.0020505867        0.0001506416        0.0019279137
  H        -0.0032465715        0.0002217535       -0.0026989271
       8
 i =       28, time =       14.000, E =       -14.9518338104
  C         0.0073528737       -0.0120878517        0.0063881662
  C        -0.0077771103       -0.0027252368        0.0012558878
  H         0.0040739737        0.0007935222        0.0001465638
  H         0.0016414412        0.0030862957        0.0053338033
  H         0.0000760799        0.0080744869       -0.0118933388
  H        -0.0020548179        0.0057476592       -0.0002286410
  H        -0.0010605651       -0.0017767305        0.0047891443
  H        -0.0022767551       -0.0010831041       -0.0058354687
       8
 i =       29, time =       14.500, E =       -14.9514197850
  C         0.0115376163       -0.0105695141        0.0048155663
  C        -0.0126585668       -0.0026816455        0.0013803180
  H         0.0030360933       -0.0032561125        0.0002949026
  H         0.0008469967        0.0045677825        0.0080650145
  H        -0.0004339718        0.0091093603       -0.0133777181
  H        -0.0008771711        0.0086789580        0.0000630827
  H        -0.0001006253       -0.0035636871        0.0073876995
  H        -0.0013624812       -0.0022540970       -0.0086752145
       8
 i =       30, time =       15.000, E =       -14.9509894099
  C         0.0149390253       -0.0081375201        0.0027477888
  C        -0.0168372915       -0.0026005735        0.0014810158
  H         0.0019026742       -0.0072506218        0.0004011894
  H         0.0002220869        0.0057495103        0.0101853010
  H        -0.0004281795        0.0094794193       -0.0137135451
  H         0.0000947030        0.0109919062        0.0003119625
  H         0.0007183562       -0.0050305361        0.0094825118
  H        -0.0006125433       -0.0031688916       -0.0109428545
       8
 i =       31, time =       15.500, E =       -14.9506579628
  C         0.0173091044       -0.0049974383        0.0003758796
  C        -0.0200011137       -0.0024934539        0.0015574170
  H         0.0008044673       -0.0108259538        0.0004657198
  H        -0.0001406993        0.0065027464        0.0114721841
  H         0.0000972205        0.0091554621       -0.0128679139
  H         0.0007631330        0.0124346410        0.0004856738
  H         0.0012955820       -0.0060163356        0.0108649825
  H        -0.0001202329       -0.0037257089       -0.0123991604
       8
 i =       32, time =       16.000, E =       -14.9505129688
  C         0.0185077194       -0.0014778313       -0.0020540866
  C        -0.0219396329       -0.0023714354        0.0016107840
  H        -0.0001189458       -0.0136152296        0.0004942592
  H        -0.0001807278        0.0067383109        0.0117857151
  H         0.0010699566        0.0081883970       -0.0109507178
  H         0.0010662172        0.0128379127        0.0005586183
  H         0.0015567924       -0.0064049376        0.0113915700
  H         0.0000524733       -0.0038604938       -0.0128785928
       8
 i =       33, time =       16.500, E =       -14.9505844214
  C         0.0185197295        0.0020196377       -0.0042907455
  C        -0.0225809046       -0.0022433770        0.0016440427
  H        -0.0007402416       -0.0153032571        0.0004973667
  H         0.0001186755        0.0064229767        0.0110943972
  H         0.0023582543        0.0066973576       -0.0081905748
  H         0.0009889189        0.0121464209        0.0005166789
  H         0.0014673784       -0.0061459229        0.0110096273
  H        -0.0001136030       -0.0035591662       -0.0123199534
       8
 i =       34, time =       17.000, E =       -14.9508347055
  C         0.0174540333        0.0050951461       -0.0061271081
  C        -0.0220027532       -0.0021141593        0.0016611084
  H        -0.0009680048       -0.0156833447        0.0004881408
  H         0.0007269330        0.0055858364        0.0094811992
  H         0.0037983054        0.0048458528       -0.0048890385
  H         0.0005651442        0.0104295386        0.0003600049
  H         0.0010386723       -0.0052643619        0.0097670460
  H        -0.0005914429       -0.0028605373       -0.0107770625
       8
 i =       35, time =       17.500, E =       -14.9511722232
  C         0.0155257518        0.0074269354       -0.0074328363
  C        -0.0204149361       -0.0019841177        0.0016660897
  H        -0.0007660314       -0.0147002996        0.0004793279
  H         0.0015725138        0.0043127114        0.0071276905
  H         0.0052232787        0.0028140957       -0.0013694737
  H        -0.0001297657        0.0078681599        0.0001030709
  H         0.0003250853       -0.0038560030        0.0078031928
  H        -0.0013135728       -0.0018487249       -0.0084099598
       8
 i =       36, time =       18.000, E =       -14.9514834949
  C         0.0130249961        0.0088240307       -0.0081615054
  C        -0.0181180133       -0.0018497434        0.0016626032
  H        -0.0001611546       -0.0124634591        0.0004804331
  H         0.0025568627        0.0027304182        0.0042811422
  H         0.0064859209        0.0007751003        0.0020659272
  H        -0.0009936878        0.0047225339       -0.0002282148
  H        -0.0005866738       -0.0020698113        0.0053237665
  H        -0.0021853935       -0.0006380557       -0.0054545234
       8
 i =       37, time =       18.500, E =       -14.9516714713
  C         0.0102779152        0.0092407981       -0.0083364274
  C        -0.0154517434       -0.0017054152        0.0016535042
  H         0.0007632983       -0.0092242591        0.0004959396
  H         0.0035712591        0.0009861388        0.0012153929
  H         0.0074711838       -0.0011211869        0.0051628893
  H        -0.0019150235        0.0012903251       -0.0006008742
  H        -0.0015928108       -0.0000830911        0.0025676988
  H        -0.0031013180        0.0006456927       -0.0021863385
       8
 i =       38, time =       19.000, E =       -14.9516861455
  C         0.0076076721        0.0087550890       -0.0080256600
  C        -0.0127468147       -0.0015455583        0.0016409919
  H         0.0018857840       -0.0053280949        0.0005249446
  H         0.0045120114       -0.0007725018       -0.0018045433
  H         0.0080996072       -0.0027548200        0.0077259449
  H        -0.0027881605       -0.0021326429       -0.0009797659
  H        -0.0025878992        0.0019233447       -0.0002256240
  H        -0.0039599133        0.0018822032        0.0011173642
       8
 i =       39, time =       19.500, E =       -14.9515375427
  C         0.0053003692        0.0075251523       -0.0073170318
  C        -0.0102898306       -0.0013658226        0.0016267383
  H         0.0030697759       -0.0011543324        0.0005623205
  H         0.0052911422       -0.0024126480       -0.0045475707
  H         0.0083245861       -0.0040368725        0.0096176546
  H        -0.0035238426       -0.0052830021       -0.0013315624
  H        -0.0034762901        0.0037843295       -0.0028404374
  H        -0.0046743607        0.0029682946        0.0042052203
       8
 i =       40, time =       20.000, E =       -14.9512885391
  C         0.0035841612        0.0057423239       -0.0062998974
  C        -0.0083046314       -0.0011647191        0.0016123746
  H         0.0041851382        0.0029353539        0.0006002246
  H         0.0058416072       -0.0038248716       -0.0068291516
  H         0.0081268684       -0.0049062078        0.0107512998
  H        -0.0040544914       -0.0079455398       -0.0016274876
  H        -0.0041797435        0.0053628596       -0.0050997522
  H        -0.0051780919        0.0038243648        0.0068691308
       8
 i =       41, time =       20.500, E =       -14.9510320004
  C         0.0026187148        0.0035962137       -0.0050564723
  C        -0.0069476996       -0.0009432492        0.0015995028
  H         0.0051221343        0.0066319489        0.0006300384
  H         0.0061182471       -0.0049262213       -0.0085144409
  H         0.0075094214       -0.0053261749        0.0110835588
  H        -0.0043348449       -0.0099598916       -0.0018445790
  H        -0.0046397946        0.0065542692       -0.0068699741
  H        -0.0054261921        0.0043953904        0.0089499535
       8
 i =       42, time =       21.000, E =       -14.9508608068
  C         0.0024945008        0.0012559445       -0.0036611614
  C        -0.0063124297       -0.0007047526        0.0015897922
  H         0.0057979106        0.0096945297        0.0006435939
  H         0.0060961390       -0.0056595954       -0.0095150689
  H         0.0064940636       -0.0052823143        0.0106097262
  H        -0.0043399694       -0.0112178043       -0.0019660536
  H        -0.0048175033        0.0072862547       -0.0080599462
  H        -0.0053934413        0.0046490105        0.0103372432
       8
 i =       43, time =       21.500, E =       -14.9508399978
  C         0.0032373680       -0.0011321497       -0.0021857155
  C        -0.0064372259       -0.0004540690        0.0015848195
  H         0.0061567180        0.0119507222        0.0006339692
  H         0.0057680866       -0.0059915477       -0.0097844753
  H         0.0051200066       -0.0047825245        0.0093630021
  H        -0.0040625458       -0.0116588935       -0.0019811498
  H        -0.0046917475        0.0075162551       -0.0086169862
  H        -0.0050721561        0.0045727868        0.0109646893
       8
 i =       44, time =       22.000, E =       -14.9509882474
  C         0.0048143359       -0.0034358299       -0.0007070560
  C        -0.0073127875       -0.0001967706        0.0015858011
  H         0.0061665119        0.0132888036        0.0005957775
  H         0.0051424950       -0.0059102830       -0.0093139500
  H         0.0034447318       -0.0038598957        0.0074186034
  H        -0.0035103074       -0.0112664863       -0.0018848492
  H        -0.0042576620        0.0072290884       -0.0085231904
  H        -0.0044697118        0.0041715065        0.0108070576
       8
 i =       45, time =       22.500, E =       -14.9512728212
  C         0.0071381990       -0.0055233938        0.0006853882
  C        -0.0088863064        0.0000617122        0.0015932313
  H         0.0058147222        0.0136481908        0.0005251551
  H         0.0042422858       -0.0054251214       -0.0081320482
  H         0.0015457164       -0.0025770188        0.0048997631
  H        -0.0027048529       -0.0100662099       -0.0016780426
  H        -0.0035259726        0.0064359933       -0.0077938956
  H        -0.0036072774        0.0034658601        0.0098785868
       8
 i =       46, time =       23.000, E =       -14.9516188410
  C         0.0100705059       -0.0072516090        0.0018862557
  C        -0.0110618254        0.0003168458        0.0016064144
  H         0.0051051559        0.0130128273        0.0004197214
  H         0.0031049951       -0.0045675346       -0.0063067488
  H        -0.0004790034       -0.0010305447        0.0019833904
  H        -0.0016812719       -0.0081278788       -0.0013679753
  H        -0.0025236802        0.0051758284       -0.0064787532
  H        -0.0025195360        0.0024923229        0.0082356122
       8
 i =       47, time =       23.500, E =       -14.9519305186
  C         0.0134241505       -0.0084610896        0.0027781652
  C        -0.0136977568        0.0005656420        0.0016229483
  H         0.0040569312        0.0114102245        0.0002785882
  H         0.0017833319       -0.0033934666       -0.0039494201
  H        -0.0025126566        0.0006476302       -0.0010991360
  H        -0.0004888639       -0.0055698181       -0.0009690238
  H        -0.0012957432        0.0035177716       -0.0046647096
  H        -0.0012553204        0.0013039502        0.0059802958
       8
 i =       48, time =       24.000, E =       -14.9521191960
  C         0.0169681096       -0.0089844470        0.0032456239
  C        -0.0166039672        0.0008071255        0.0016382204
  H         0.0027056117        0.0089169395        0.0001026031
  H         0.0003456796       -0.0019856174       -0.0012190190
  H        -0.0044263923        0.0022952577       -0.0040731902
  H         0.0008085588       -0.0025627078       -0.0005034420
  H         0.0000930443        0.0015641908       -0.0024793523
  H         0.0001221623       -0.0000290113        0.0032660275
       8
 i =       49, time =       24.500, E =       -14.9521307576
  C         0.0204366024       -0.0086701342        0.0031987277
  C        -0.0195421603        0.0010424789        0.0016450539
  H         0.0011065542        0.0056690962       -0.0001051645
  H        -0.0011249850       -0.0004537890        0.0016786122
  H        -0.0060909964        0.0037335585       -0.0066448556
  H         0.0021333361        0.0006704017       -0.0000014759
  H         0.0015573145       -0.0005486682       -0.0000913970
  H         0.0015358505       -0.0014200061        0.0002979017
       8
 i =       50, time =       25.000, E =       -14.9519642410
  C         0.0235445979       -0.0074208104        0.0026021202
  C        -0.0222336184        0.0012745932        0.0016337804
  H        -0.0006611871        0.0018740178       -0.0003387694
  H        -0.0025345457        0.0010689778        0.0044988117
  H        -0.0073930969        0.0047898347       -0.0085390541
  H         0.0033969914        0.0038621758        0.0004995173