#     Step Nr.          Time[fs]        Kin.[a.u.]          Temp[K]            Pot.[a.u.]        Cons Qty[a.u.]        UsedTime[s]
         0            0.000000         0.001662578        50.000000000       -14.950752038       -14.949010289         0.000000000
         1            0.500000         0.001754953        52.778068369       -14.950856437       -14.949014912        11.602192504
         2            1.000000         0.001944695        58.484321332       -14.951060702       -14.949021388         1.988181904
         3            1.500000         0.002133164        64.152299144       -14.951264469       -14.949027735         1.744094977
         4            2.000000         0.002225325        66.923929015       -14.951370479       -14.949031886         1.760210399
         5            2.500000         0.002161399        65.001425043       -14.951316912       -14.949032330         1.791974623
         6            3.000000         0.001939172        58.318228376       -14.951100478       -14.949028726         1.804261601
         7            3.500000         0.001618165        48.664343991       -14.950781079       -14.949022115         1.810857078
         8            4.000000         0.001302190        39.161780282       -14.950464480       -14.949014742         2.440800764
         9            4.500000         0.001104861        33.227328253       -14.950267154       -14.949009226         1.823070010
        10            5.000000         0.001109937        33.380004775       -14.950275605       -14.949007587         1.800503002
        11            5.500000         0.001341199        40.334924519       -14.950515231       -14.949010473         1.773636393
        12            6.000000         0.001753126        52.723113319       -14.950940497       -14.949016943         1.815848196
        13            6.500000         0.002245584        67.533191319       -14.951449781       -14.949024855         1.780758331
        14            7.000000         0.002696614        81.097379229       -14.951918841       -14.949031679         1.775291389
        15            7.500000         0.003001110        90.254713023       -14.952240330       -14.949035391         1.754903745
        16            8.000000         0.003101934        93.286868245       -14.952355577       -14.949035094         1.756522270
        17            8.500000         0.003003862        90.337483808       -14.952268860       -14.949031190         1.754754920
        18            9.000000         0.002767491        83.228892155       -14.952041307       -14.949025112         1.757063150
        19            9.500000         0.002486979        74.792853449       -14.951768409       -14.949018800         1.760732280
        20           10.000000         0.002259810        67.961012803       -14.951549401       -14.949014131         1.760513972
        21           10.500000         0.002157721        64.890811351       -14.951457715       -14.949012417         1.751500681
        22           11.000000         0.002206457        66.356483530       -14.951520269       -14.949014115         1.637932263
        23           11.500000         0.002379090        71.548214390       -14.951710427       -14.949018738         1.685769001
        24           12.000000         0.002604357        78.322835373       -14.951956145       -14.949024939         1.774787413
        25           12.500000         0.002788089        83.848349623       -14.952161524       -14.949030850         4.190024456
        26           13.000000         0.002842525        85.485447987       -14.952236481       -14.949034556         1.872016368
        27           13.500000         0.002715518        81.665886273       -14.952126612       -14.949034703         2.335082691
        28           14.000000         0.002410418        72.490358933       -14.951833810       -14.949031010         1.465508908
        29           14.500000         0.001988985        59.816285332       -14.951419785       -14.949024493         1.462113982
        30           15.000000         0.001554590        46.752395776       -14.950989410       -14.949017223         1.453986038
        31           15.500000         0.001219889        36.686660466       -14.950657963       -14.949011651         1.428983772
        32           16.000000         0.001069606        32.167092716       -14.950512969       -14.949009713         1.446107877
        33           16.500000         0.001131810        34.037814784       -14.950584421       -14.949012088         1.435446331
        34           17.000000         0.001368529        41.156823127       -14.950834706       -14.949017926         1.454410439
        35           17.500000         0.001689400        50.806650742       -14.951172223       -14.949025173         1.474680042
        36           18.000000         0.001983181        59.641741379       -14.951483495       -14.949031374         1.462238885
        37           18.500000         0.002155171        64.814131197       -14.951671471       -14.949034569         2.100495417
        38           19.000000         0.002157040        64.870331698       -14.951686146       -14.949033933         1.493276810
        39           19.500000         0.001999375        60.128757242       -14.951537543       -14.949029930         1.485798215
        40           20.000000         0.001744450        52.462209558       -14.951288539       -14.949024021         1.482014036
        41           20.500000         0.001483613        44.617842954       -14.951032000       -14.949018111         2.248758085
        42           21.000000         0.001307773        39.329679019       -14.950860807       -14.949013966         1.460919814
        43           21.500000         0.001280078        38.496783075       -14.950839998       -14.949012763         1.488310691
        44           22.000000         0.001417891        42.641346894       -14.950988247       -14.949014836         1.473402740
        45           22.500000         0.001688108        50.767793093       -14.951272821       -14.949019619         1.502770185
        46           23.000000         0.002016545        60.645118079       -14.951618841       -14.949025790         1.504115386
        47           23.500000         0.002309037        69.441471339       -14.951930519       -14.949031580         1.499869242
        48           24.000000         0.002479074        74.555124467       -14.952119196       -14.949035237         1.509861760
        49           24.500000         0.002474620        74.421158483       -14.952130758       -14.949035545         1.495232744
        50           25.000000         0.002296067        69.051393828       -14.951964241       -14.949032258         1.496419095
        51           25.500000         0.001998789        60.111134151       -14.951674919       -14.949026287         1.454524886
        52           26.000000         0.001677893        50.460586595       -14.951359227       -14.949019521         1.473525947
        53           26.500000         0.001438625        43.264896433       -14.951124810       -14.949014242         1.466651410
        54           27.000000         0.001361522        40.946107116       -14.951054843       -14.949012333         1.490715005
        55           27.500000         0.001474424        44.341484553       -14.951179047       -14.949014546         1.487217611
        56           28.000000         0.001742042        52.389776149       -14.951462530       -14.949020160         1.635082712
        57           28.500000         0.002077698        62.484223587       -14.951817419       -14.949027233         1.555567946
        58           29.000000         0.002373210        71.371379350       -14.952133288       -14.949033352         1.444931917
        59           29.500000         0.002535591        76.254792738       -14.952314729       -14.949036553         1.467420768
        60           30.000000         0.002516859        75.691442759       -14.952311957       -14.949035988         1.667282464
        61           30.500000         0.002326888        69.978300865       -14.952134132       -14.949032104         2.251415551
        62           31.000000         0.002026570        60.946623269       -14.951842564       -14.949026328         1.463498110
        63           31.500000         0.001705725        51.297583429       -14.951528391       -14.949020510         1.475811705
        64           32.000000         0.001454325        43.737029410       -14.951283386       -14.949016362         1.476182600
        65           32.500000         0.001336020        40.179173588       -14.951172975       -14.949015012         1.484686028
        66           33.000000         0.001370773        41.224314661       -14.951218386       -14.949016791         1.466825981
        67           33.500000         0.001530262        46.020754161       -14.951391672       -14.949021162         1.506079169
        68           34.000000         0.001746625        52.527623423       -14.951624358       -14.949026908         1.521067252
        69           34.500000         0.001932290        58.111263821       -14.951827299       -14.949032346         1.526625864
        70           35.000000         0.002006210        60.334323150       -14.951917326       -14.949035779         1.436205676
        71           35.500000         0.001919853        57.737232557       -14.951843811       -14.949035974         1.426648485
        72           36.000000         0.001675348        50.384038242       -14.951607516       -14.949032610         1.457515351
        73           36.500000         0.001329125        39.971801991       -14.951264822       -14.949026517         1.486761451
        74           37.000000         0.000977806        29.406304177       -14.950913856       -14.949019565         1.720447956
        75           37.500000         0.000728839        21.918946958       -14.950664746       -14.949014115         2.196257126
        76           38.000000         0.000664689        19.989696872       -14.950602870       -14.949012158         1.487099864
        77           38.500000         0.000813455        24.463673649       -14.950758339       -14.949014487         1.501199909
        78           39.000000         0.001137899        34.220905073       -14.951094250       -14.949020314         1.538663199
        79           39.500000         0.001548081        46.556638466       -14.951519319       -14.949027561         1.507194042
        80           40.000000         0.001932972        58.131774598       -14.951920194       -14.949033727         1.487596327
        81           40.500000         0.002198308        66.111424554       -14.952200315       -14.949036869         1.523051072
        82           41.000000         0.002296073        69.051587014       -14.952310194       -14.949036259         1.509982644
        83           41.500000         0.002235763        67.237847442       -14.952259022       -14.949032485         1.490399836
        84           42.000000         0.002075749        62.425595685       -14.952105893       -14.949027023         1.497141579
        85           42.500000         0.001900263        57.148075771       -14.951936506       -14.949021713         1.500256244
        86           43.000000         0.001791060        53.863936065       -14.951834325       -14.949018162         1.483609645
        87           43.500000         0.001802459        54.206745652       -14.951855178       -14.949017363         1.485802699
        88           44.000000         0.001945948        58.522007488       -14.952011480       -14.949019521         1.495747546
        89           44.500000         0.002187296        65.780236550       -14.952269093       -14.949024049         1.554182097
        90           45.000000         0.002456153        73.865785401       -14.952556859       -14.949029721         1.504037671
        91           45.500000         0.002665666        80.166637358       -14.952786327       -14.949034942         1.488705551
        92           46.000000         0.002737527        82.327761378       -14.952877122       -14.949038135         1.483473282
        93           46.500000         0.002626254        78.981378968       -14.952781732       -14.949038177         1.502167195
        94           47.000000         0.002335773        70.245513214       -14.952502695       -14.949034805         1.490266765
        95           47.500000         0.001922235        57.808853587       -14.952095969       -14.949028837         1.474662872
        96           48.000000         0.001480171        44.514331794       -14.951657314       -14.949022063         1.505437395
        97           48.500000         0.001114363        33.513117596       -14.951293845       -14.949016727         1.472451510
        98           49.000000         0.000905798        27.240764966       -14.951089115       -14.949014702         1.523129586
        99           49.500000         0.000884026        26.585986112       -14.951074409       -14.949016700         1.516254349
       100           50.000000         0.001017329        30.594909697       -14.951218178       -14.949021920         1.497935573
       101           50.500000         0.001225480        36.854796835       -14.951438811       -14.949028353         1.496298349
       102           51.000000         0.001410221        42.410662866       -14.951635805       -14.949033631         1.486447113
       103           51.500000         0.001490966        44.838987391       -14.951726459       -14.949035978         1.491917983
       104           52.000000         0.001431774        43.058856034       -14.951673600       -14.949034796         1.457818549
       105           52.500000         0.001250599        37.610239672       -14.951495143       -14.949030721         1.478000434
       106           53.000000         0.001009805        30.368651043       -14.951254472       -14.949025231         1.481953526
       107           53.500000         0.000793579        23.865930890       -14.951037459       -14.949020077         1.447592709
       108           54.000000         0.000680891        20.476970179       -14.950924920       -14.949016767         1.420023389
       109           54.500000         0.000722098        21.716200070       -14.950968750       -14.949016215         1.421050819
       110           55.000000         0.000924797        27.812140184       -14.951177414       -14.949018581         1.645089930
       111           55.500000         0.001251564        37.639251026       -14.951513483       -14.949023271         1.420990618
       112           56.000000         0.001629555        49.006876146       -14.951903251       -14.949029071         1.412104307
       113           56.500000         0.001969760        59.238131116       -14.952256178       -14.949034408         1.404680828
       114           57.000000         0.002191647        65.911101718       -14.952489896       -14.949037715         1.415738365
       115           57.500000         0.002247170        67.580894491       -14.952554724       -14.949037887         1.414327987
       116           58.000000         0.002137123        64.271366891       -14.952450566       -14.949034701         1.420784373
       117           58.500000         0.001913493        57.545944884       -14.952229690       -14.949029051         1.720353825
       118           59.000000         0.001664752        50.065382076       -14.951982104       -14.949022803         1.920985566
       119           59.500000         0.001486866        44.715680755       -14.951806084       -14.949018218         2.250247572
       120           60.000000         0.001449249        43.584402123       -14.951773218       -14.949017052         1.781008573
       121           60.500000         0.001568818        47.180288168       -14.951901506       -14.949019791         1.795336351
       122           61.000000         0.001803403        54.235151590       -14.952148270       -14.949025377         1.797977474
       123           61.500000         0.002067937        62.190665881       -14.952426620       -14.949031673         1.750524307
       124           62.000000         0.002266660        68.167035184       -14.952638485       -14.949036383         1.765779551
       125           62.500000         0.002327808        70.005963566       -14.952710201       -14.949037954         1.364521125
       126           63.000000         0.002227244        66.981648898       -14.952616748       -14.949036069         1.761690436
       127           63.500000         0.001993726        59.958875634       -14.952387109       -14.949031570         1.758008584
       128           64.000000         0.001696387        51.016768479       -14.952091517       -14.949026002         1.766805314
       129           64.500000         0.001420950        42.733344339       -14.951817265       -14.949021071         2.202895643
       130           65.000000         0.001243303        37.390830846       -14.951641839       -14.949018162         1.748080058
       131           65.500000         0.001207932        36.327077031       -14.951610948       -14.949018036         1.723956786
       132           66.000000         0.001316098        39.580031289       -14.951726409       -14.949020711         1.736038551
       133           66.500000         0.001525832        45.887516802       -14.951945982       -14.949025467         1.727466343
       134           67.000000         0.001763359        53.030878455       -14.952194872       -14.949031040         2.833084004
       135           67.500000         0.001943457        58.447098521       -14.952386232       -14.949035834         1.722535701
       136           68.000000         0.001994232        59.974086043       -14.952446371       -14.949038345         1.736750579
       137           68.500000         0.001880093        56.541485478       -14.952338230       -14.949037610         1.753309989
       138           69.000000         0.001615792        48.592957226       -14.952075989       -14.949033626         1.710399866
       139           69.500000         0.001265500        38.058349982       -14.951724477       -14.949027493         1.710815173
       140           70.000000         0.000924725        27.809973487       -14.951381093       -14.949021243         1.741987707
       141           70.500000         0.000689176        20.726116253       -14.951144004       -14.949017123        13.310049713
       142           71.000000         0.000621105        18.678960087       -14.951077482       -14.949016679         1.446150679
       143           71.500000         0.000726609        21.851883597       -14.951188300       -14.949020054         1.448245276
       144           72.000000         0.000953980        28.689767251       -14.951423800       -14.949025888         1.454875244
       145           72.500000         0.001214195        36.515424110       -14.951692893       -14.949031932        12.594919559
       146           73.000000         0.001414720        42.545971961       -14.951900819       -14.949036009         3.619483531
       147           73.500000         0.001492427        44.882929798       -14.951982950       -14.949036846         1.442341488
       148           74.000000         0.001433317        43.105243930       -14.951924934       -14.949034409         1.440847356
       149           74.500000         0.001273644        38.303294532       -14.951763758       -14.949029716         1.433004092
       150           75.000000         0.001084721        32.621666516       -14.951572171       -14.949024363         1.551265305
       151           75.500000         0.000948487        28.524571262       -14.951433778       -14.949019985         1.475603988
       152           76.000000         0.000932100        28.031770901       -14.951417192       -14.949017837         1.843993153
       153           76.500000         0.001068299        32.127770796       -14.951556049       -14.949018537         1.946821876
       154           77.000000         0.001345710        40.470584330       -14.951839140       -14.949021966         1.463456877
       155           77.500000         0.001710821        51.450855326       -14.952212346       -14.949027301         1.452867059
       156           78.000000         0.002081086        62.586107798       -14.952591874       -14.949033170         1.454095608
       157           78.500000         0.002366597        71.172513102       -14.952886191       -14.949037935         1.476008879
       158           79.000000         0.002495601        75.052139106       -14.953021928       -14.949040108         1.138890117
       159           79.500000         0.002437150        73.294304031       -14.952967019       -14.949038844         1.463377919
       160           80.000000         0.002213371        66.564432002       -14.952743429       -14.949034351         1.493300706
       161           80.500000         0.001895287        56.998429870       -14.952423223       -14.949028012         1.469164889
       162           81.000000         0.001580909        47.543911734       -14.952106441       -14.949022035         1.496900205
       163           81.500000         0.001361543        40.946735009       -14.951886653       -14.949018639         1.471069513
       164           82.000000         0.001288626        38.753839144       -14.951816791       -14.949019095         1.465791449
       165           82.500000         0.001355068        40.752024968       -14.951889772       -14.949023129         1.452295288
       166           83.000000         0.001499571        45.097757563       -14.952042807       -14.949029044         1.468672873
       167           83.500000         0.001632056        49.082071900       -14.952183550       -14.949034496         1.471244559
       168           84.000000         0.001668912        50.190472098       -14.952226310       -14.949037487         1.464007203
       169           84.500000         0.001563420        47.017944043       -14.952123228       -14.949037083         1.140870055
       170           85.000000         0.001320579        39.714801914       -14.951879338       -14.949033574         1.475151520
       171           85.500000         0.000993238        29.870425461       -14.951548515       -14.949028189         1.472013913
       172           86.000000         0.000663543        19.955239611       -14.951214503       -14.949022591         1.444232849
       173           86.500000         0.000417426        12.553571063       -14.950964913       -14.949018356         1.609201299
       174           87.000000         0.000320063         9.625502604       -14.950866253       -14.949016600         1.498585066
       175           87.500000         0.000398347        11.979801495       -14.950946090       -14.949017771         1.486574015
       176           88.000000         0.000633863        19.062666207       -14.951185878       -14.949021580         1.501188714
       177           88.500000         0.000967484        29.095894895       -14.951525595       -14.949027065         1.495176956
       178           89.000000         0.001314612        39.535354541       -14.951879195       -14.949032765         1.530177630
       179           89.500000         0.001588049        47.758627982       -14.952157821       -14.949037045         1.156709323
       180           90.000000         0.001723294        51.825966169       -14.952295566       -14.949038537         1.463929197
       181           90.500000         0.001699313        51.104746742       -14.952270709       -14.949036624         1.469934570
       182           91.000000         0.001547313        46.533542913       -14.952114860       -14.949031800         2.746417468
       183           91.500000         0.001342365        40.369989360       -14.951904637       -14.949025687         2.789645685
       184           92.000000         0.001178194        35.432729516       -14.951736010       -14.949020557         2.685551532
       185           92.500000         0.001132808        34.067815249       -14.951689051       -14.949018438         2.625359189
       186           93.000000         0.001238232        37.238321070       -14.951796730       -14.949020214         2.515049070
       187           93.500000         0.001467469        44.132334170       -14.952031422       -14.949025196         2.160679402
       188           94.000000         0.001744795        52.472561300       -14.952315504       -14.949031432         1.515347801
       189           94.500000         0.001974840        59.390881305       -14.952551324       -14.949036595         1.453764737
       190           95.000000         0.002077737        62.485391310       -14.952657279       -14.949038920         1.148014786
       191           95.500000         0.002016259        60.636515535       -14.952595497       -14.949037791         1.515174249
       192           96.000000         0.001806023        54.313929581       -14.952382073       -14.949033764         1.469403988
       193           96.500000         0.001507660        45.341036757       -14.952078902       -14.949028210         1.504882146
       194           97.000000         0.001206091        36.271717902       -14.951772494       -14.949022793         1.484690323
       195           97.500000         0.000984791        29.616386525       -14.951547801       -14.949018996         1.487411564
       196           98.000000         0.000902523        27.142288912       -14.951464601       -14.949017794         1.490674214
       197           98.500000         0.000977941        29.410388210       -14.951541880       -14.949019476         1.487964217
       198           99.000000         0.001185010        35.637738463       -14.951753189       -14.949023599         1.487437848
       199           99.500000         0.001459988        43.907339981       -14.952033709       -14.949029074         1.484235546
       200          100.000000         0.001718630        51.685703010       -14.952297690       -14.949034370         1.498845315
       201          100.500000         0.001880166        56.543695561       -14.952462780       -14.949037866         1.508075966
       202          101.000000         0.001892284        56.908130753       -14.952475466       -14.949038328         1.158839796
       203          101.500000         0.001749699        52.620070249       -14.952330094       -14.949035395         1.484764995
       204          102.000000         0.001498886        45.077163083       -14.952073915       -14.949029887         1.512913616
       205          102.500000         0.001224816        36.834847606       -14.951793744       -14.949023693         1.513171878
       206          103.000000         0.001022010        30.735685570       -14.951586395       -14.949019132         2.379274271
       207          103.500000         0.000959659        28.860581642       -14.951522850       -14.949017996         1.640151842
       208          104.000000         0.001055007        31.728031483       -14.951620776       -14.949020717         1.476121930
       209          104.500000         0.001266796        38.097341137       -14.951837801       -14.949026198         1.463728119
       210          105.000000         0.001511841        45.466778948       -14.952088568       -14.949032274         1.433085145
       211          105.500000         0.001697155        51.039869486       -14.952277883       -14.949036709         1.435481317
       212          106.000000         0.001753815        52.743847648       -14.952335426       -14.949038051         1.117580460
       213          106.500000         0.001659623        49.911121180       -14.952238781       -14.949036032         1.427865027
       214          107.000000         0.001443940        43.424740862       -14.952018153       -14.949031478         1.472889902
       215          107.500000         0.001175658        35.356481807       -14.951743918       -14.949025887         1.434563378
       216          108.000000         0.000940435        28.282429289       -14.951503367       -14.949020910         1.437923133
       217          108.500000         0.000815073        24.512334324       -14.951374650       -14.949017915         1.445372535
       218          109.000000         0.000845983        25.441916252       -14.951404925       -14.949017703         1.417038662
       219          109.500000         0.001036515        31.171922388       -14.951597553       -14.949020364         1.756172212
       220          110.000000         0.001345610        40.467584394       -14.951910718       -14.949025227         1.777032629
       221          110.500000         0.001698058        51.067029746       -14.952267913       -14.949031032         1.795634659
       222          111.000000         0.002004494        60.282707133       -14.952578192       -14.949036141         1.798860298
       223          111.500000         0.002186923        65.769035866       -14.952762103       -14.949038958         1.415764777
       224          112.000000         0.002203203        66.258647176       -14.952776618       -14.949038446         1.802517269
       225          112.500000         0.002062514        62.027593979       -14.952631002       -14.949034593         1.810331788
       226          113.000000         0.001824789        54.878288491       -14.952386421       -14.949028615         1.771449061
       227          113.500000         0.001581592        47.564443952       -14.952136547       -14.949022666         1.768078737