       8
 i =        0, time =        0.000, E =       -14.9507520376
  C        -2.7700694500        1.2735381400        0.0000000000
  C        -1.2698194500        1.2735381400        0.0000000000
  H        -3.1651834500        0.2286071500        0.0000570400
  H        -3.1654054500        1.7959295400        0.9048934800
  H        -3.1654644500        1.7958757500       -0.9048915100
  H        -0.8743194500        2.3182171500       -0.0000029800
  H        -0.8747974500        0.7509467500        0.9049494800
  H        -0.8747794500        0.7509635300       -0.9049495200
       8
 i =        1, time =        0.500, E =       -14.9508564372
  C        -2.7699566492        1.2739429034       -0.0000878134
  C        -1.2703157516        1.2737053211       -0.0005520014
  H        -3.1590864646        0.2256615223        0.0027761721
  H        -3.1597405401        1.7940552179        0.9055651502
  H        -3.1636673038        1.7941266688       -0.8994474707
  H        -0.8745235308        2.3161310963        0.0031588733
  H        -0.8797534674        0.7485464190        0.9023702050
  H        -0.8786137401        0.7552064646       -0.9067428519
       8
 i =        2, time =        1.000, E =       -14.9510607018
  C        -2.7700782741        1.2743189173       -0.0001536525
  C        -1.2705690707        1.2738729222       -0.0011038187
  H        -3.1530089511        0.2243589074        0.0054640562
  H        -3.1541591931        1.7914851623        0.9050271291
  H        -3.1620111911        1.7917841018       -0.8930247080
  H        -0.8747196909        2.3126494454        0.0063096217
  H        -0.8846414277        0.7468549470        0.8985535362
  H        -0.8823919509        0.7601255995       -0.9072891509
       8
 i =        3, time =        1.500, E =       -14.9512644692
  C        -2.7704060701        1.2746392253       -0.0001761789
  C        -1.2705986099        1.2740422966       -0.0016564766
  H        -3.1470324107        0.2246830439        0.0080955088
  H        -3.1488035847        1.7883397895        0.9034925296
  H        -3.1607056120        1.7890695404       -0.8860487337
  H        -0.8748273657        2.3080059959        0.0094463299
  H        -0.8893343381        0.7457527231        0.8936806568
  H        -0.8859962255        0.7655861290       -0.9067707697
       8
 i =        4, time =        2.000, E =       -14.9513704790
  C        -2.7709039596        1.2748798627       -0.0001358689
  C        -1.2704318347        1.2742148333       -0.0022110460
  H        -3.1412663712        0.2265069862        0.0106460199
  H        -3.1438337398        1.7847818138        0.9012476352
  H        -3.1599732151        1.7862367401       -0.8789969408
  H        -0.8747425671        2.3025203608        0.0125684664
  H        -0.8936851186        0.7450749854        0.8880074794
  H        -0.8892881698        0.7714125990       -0.9054469856
       8
 i =        5, time =        2.500, E =       -14.9513169122
  C        -2.7715304387        1.2750219756       -0.0000167230
  C        -1.2701026331        1.2743919491       -0.0027686496
  H        -3.1358445262        0.2295987862        0.0130924342
  H        -3.1394191934        1.7810061411        0.8986336016
  H        -3.1600336710        1.7835506450       -0.8723606973
  H        -0.8743444702        2.2965783385        0.0156785570
  H        -0.8975341553        0.7446211389        0.8818477722
  H        -0.8921163832        0.7773995721       -0.9036375822
       8
 i =        6, time =        3.000, E =       -14.9511004777
  C        -2.7722415792        1.2750540893        0.0001919377
  C        -1.2696488914        1.2745750697       -0.0033304579
  H        -3.1309192449        0.2336333562        0.0154135286
  H        -3.1357287644        1.7772263103        0.8960217556
  H        -3.1610844228        1.7812618623       -0.8666000494
  H        -0.8735043763        2.2906053130        0.0187824499
  H        -0.9007187937        0.7441679138        0.8755503531
  H        -0.8943260219        0.7833254959       -0.9017001798
       8
 i =        7, time =        3.500, E =       -14.9507810787
  C        -2.7729944598        1.2749741859        0.0004939390
  C        -1.2691095295        1.2747655882       -0.0038976731
  H        -3.1266542969        0.2382115753        0.0175904052
  H        -3.1329189163        1.7736578567        0.8937832685
  H        -3.1632802547        1.7795793313       -0.8620958061
  H        -0.8720969059        2.2850332472        0.0218890556
  H        -0.9030845110        0.7434862537        0.8694708141
  H        -0.8957701554        0.7889694046       -0.9000016538
       8
 i =        8, time =        4.000, E =       -14.9504644796
  C        -2.7737507278        1.2747910919        0.0008854237
  C        -1.2685211612        1.2749648034       -0.0044714979
  H        -3.1232156858        0.2428873894        0.0196066570
  H        -3.1311214144        1.7704996606        0.8922552546
  H        -3.1667145941        1.7786453631       -0.8591062692
  H        -0.8700128202        2.2802633409        0.0250094571
  H        -0.9044971105        0.7423609806        0.8639395982
  H        -0.8963222424        0.7941293701       -0.8988853579
       8
 i =        9, time =        4.500, E =       -14.9502671543
  C        -2.7744798757        1.2745246251        0.0013551148
  C        -1.2679146926        1.2751738372       -0.0050530887
  H        -3.1207606285        0.2472028077        0.0214482716
  H        -3.1304314827        1.7679151632        0.8917068607
  H        -3.1714059465        1.7785177543       -0.8577367623
  H        -0.8671722968        2.2766279721        0.0281554048
  H        -0.9048548478        0.7406114383        0.8592295747
  H        -0.8958885980        0.7986408299       -0.8986373526
       8
 i =       10, time =        5.000, E =       -14.9502756050
  C        -2.7751618129        1.2742041056        0.0018858202
  C        -1.2673122756        1.2753935343       -0.0056434924
  H        -3.1194250525        0.2507291183        0.0231033229
  H        -3.1308979669        1.7660159520        0.8923101206
  H        -3.1772923277        1.7791628719       -0.8579285340
  H        -0.8635369446        2.2743569604        0.0313373309
  H        -0.9040990299        0.7381104675        0.8555274221
  H        -0.8944192985        0.8023923873       -0.8994561306
       8
 i =       11, time =        5.500, E =       -14.9505152311
  C        -2.7757883900        1.2738652022        0.0024569643
  C        -1.2667250821        1.2756243509       -0.0062435714
  H        -3.1193105717        0.2531104363        0.0245615375
  H        -3.1325170104        1.7648503742        0.8941204618
  H        -3.1842349690        1.7804612352       -0.8594694209
  H        -0.8591186241        2.2735535461        0.0345621723
  H        -0.9022215076        0.7347987596        0.8529134107
  H        -0.8919158691        0.8053365934       -0.9014306834
       8
 i =       12, time =        6.000, E =       -14.9509404967
  C        -2.7763636963        1.2735455575        0.0030476049
  C        -1.2661522818        1.2758662453       -0.0068539262
  H        -3.1204724736        0.2541036713        0.0258138778
  H        -3.1352303721        1.7643992178        0.8970705137
  H        -3.1920305000        1.7822241833       -0.8620235932
  H        -0.8539833730        2.2741844124        0.0378313898
  H        -0.8992677687        0.7306920613        0.8513532435
  H        -0.8884343790        0.8074938330       -0.9045308548
       8
 i =       13, time =        6.500, E =       -14.9514497811
  C        -2.7769031393        1.2732800114        0.0036392633
  C        -1.2655814239        1.2761185864       -0.0074748271
  H        -3.1229106242        0.2536080562        0.0268523131
  H        -3.1389287982        1.7645792621        0.9009784574
  H        -3.2004291504        1.7842178795       -0.8651737374
  H        -0.8482495255        2.2760856056        0.0411395758
  H        -0.8953349674        0.7258798538        0.8507034752
  H        -0.8840832470        0.8089486248       -0.9086118759
       8
 i =       14, time =        7.000, E =       -14.9519188410
  C        -2.7774314754        1.2730963786        0.0042180146
  C        -1.2649901632        1.2763800968       -0.0081061661
  H        -3.1265651145        0.2516782757        0.0276698930
  H        -3.1434599896        1.7652539810        0.9055693233
  H        -3.2091556867        1.7861899881       -0.8684675662
  H        -0.8420801273        2.2789831343        0.0444739347
  H        -0.8905651047        0.7205157582        0.8507295121
  H        -0.8790159868        0.8098390766       -0.9134321357
       8
 i =       15, time =        7.500, E =       -14.9522403298
  C        -2.7779800658        1.2730125456        0.0047755715
  C        -1.2643490411        1.2766488429       -0.0087474380
  H        -3.1313177810        0.2485181595        0.0282611623
  H        -3.1486399832        1.7662493968        0.9105053355
  H        -3.2179300967        1.7878948845       -0.8714616019
  H        -0.8356708449        2.2825245584        0.0478147448
  H        -0.8851343799        0.7148014185        0.8511327860
  H        -0.8734199786        0.8103414256       -0.9186809526
       8
 i =       16, time =        8.000, E =       -14.9523555769
  C        -2.7785836906        1.2730352454        0.0053094070
  C        -1.2636248780        1.2769222771       -0.0093977518
  H        -3.1369996287        0.2444560315        0.0286228524
  H        -3.1542662932        1.7673724179        0.9154202908
  H        -3.2264859028        1.7891147111       -0.8737577104
  H        -0.8292352180        2.2863160976        0.0511366990
  H        -0.8792402360        0.7089665664        0.8515825710
  H        -0.8675028931        0.8106522073       -0.9240115867
       8
 i =       17, time =        8.500, E =       -14.9522688604
  C        -2.7792772481        1.2731604096        0.0058221669
  C        -1.2627843106        1.2771973275       -0.0100558686
  H        -3.1434030048        0.2399065832        0.0287547014
  H        -3.1601312867        1.7684291039        0.9199532936
  H        -3.2345850066        1.7896751386       -0.8750305409
  H        -0.8229892384        2.2899601150        0.0544108839
  H        -0.8730877558        0.7032481424        0.8517478626
  H        -0.8614785241        0.8109705171       -0.9290747915
       8
 i =       18, time =        9.000, E =       -14.9520413074
  C        -2.7800926331        1.2733746694        0.0063206945
  C        -1.2617970844        1.2774705236       -0.0107202571
  H        -3.1502966196        0.2353261727        0.0286602247
  H        -3.1660344771        1.7692409227        0.9237783841
  H        -3.2420289084        1.7894559481       -0.8750461244
  H        -0.8171369930        2.2930888555        0.0576071069
  H        -0.8668767895        0.6978708336        0.8513258347
  H        -0.8555534886        0.8114822272       -0.9335491623
       8
 i =       19, time =        9.500, E =       -14.9517684089
  C        -2.7810560062        1.2736574620        0.0068149405
  C        -1.2606388463        1.2777381453       -0.0113891575
  H        -3.1574412565        0.2311684297        0.0283472825
  H        -3.1717929918        1.7696578906        0.9266282503
  H        -3.2486665479        1.7883971640       -0.8736728554
  H        -0.8118584889        2.2953919102        0.0606962804
  H        -0.8607907874        0.6930305976        0.8500648072
  H        -0.8499157999        0.8123472520       -0.9371659773
       8
 i =       20, time =       10.000, E =       -14.9515494008
  C        -2.7821855902        1.2739832642        0.0073169358
  C        -1.2592933149        1.2779963789       -0.0120606440
  H        -3.1646044248        0.2278452519        0.0278283599
  H        -3.1772498444        1.7695682693        0.9283113191
  H        -3.2543992715        1.7865016317       -0.8708864467
  H        -0.8073001770        2.2966366378        0.0636526610
  H        -0.8549878048        0.6888818465        0.8477810670
  H        -0.8447257945        0.8136901860       -0.9397277547
       8
 i =       21, time =       10.500, E =       -14.9514577154
  C        -2.7834900520        1.2743236545        0.0078398879
  C        -1.2577538133        1.2782414690       -0.0127326816
  H        -3.1715728423        0.2256959246        0.0271205107
  H        -3.1822800234        1.7689049994        0.9287228601
  H        -3.2591832631        1.7838347621       -0.8667699468
  H        -0.8035682691        2.2966817733        0.0664558085
  H        -0.8495937720        0.6855283276        0.8443697669
  H        -0.8401094896        0.8155941654       -0.9411206900
       8
 i =       22, time =       11.000, E =       -14.9515202688
  C        -2.7849674917        1.2746490967        0.0083973789
  C        -1.2560241977        1.2784698593       -0.0134031728
  H        -3.1781623174        0.2249649683        0.0262450086
  H        -3.1867945409        1.7676492507        0.9278506343
  H        -3.2630295256        1.7805217350       -0.8615093030
  H        -0.8007246634        2.2954848978        0.0690921957
  H        -0.8446979154        0.6830174045        0.8398106020
  H        -0.8361542528        0.8180975827       -0.9413215800
       8
 i =       23, time =       11.500, E =       -14.9517104265
  C        -2.7866050528        1.2749304915        0.0090025854
  C        -1.2541192197        1.2786783163       -0.0140699973
  H        -3.1842250598        0.2257879915        0.0252267228
  H        -3.1907425990        1.7658314375        0.9257757569
  H        -3.2660011247        1.7767420126       -0.8553841422
  H        -0.7987852862        2.2931044992        0.0715564282
  H        -0.8403501803        0.6813374558        0.8341689200
  H        -0.8329065900        0.8211932942       -0.9403998115
       8
 i =       24, time =       12.000, E =       -14.9519561454
  C        -2.7883791822        1.2751406247        0.0096674274
  C        -1.2520643333        1.2788640348       -0.0147310464
  H        -3.1896547078        0.2281843566        0.0240932670
  H        -3.1941118884        1.7635298505        0.9226689385
  H        -3.2682071744        1.7727206845       -0.8487528877
  H        -0.7977207517        2.2896969364        0.0738520208
  H        -0.8365605362        0.6804182190        0.8275926047
  H        -0.8303719912        0.8248301495       -0.9385147159
       8
 i =       25, time =       12.500, E =       -14.9521615235
  C        -2.7902565982        1.2752556578        0.0104015704
  C        -1.2498949144        1.2790247213       -0.0153842557
  H        -3.1943893759        0.2320557160        0.0228739384
  H        -3.1969268895        1.7608668025        0.9187818871
  H        -3.2697929047        1.7687159975       -0.8420310939
  H        -0.7974594112        2.2855081495        0.0759916506
  H        -0.8333002918        0.6801342594        0.8203046411
  H        -0.8285169217        0.8289168632       -0.9359081168
       8
 i =       26, time =       13.000, E =       -14.9522364810
  C        -2.7921960140        1.2752567491        0.0112112744
  C        -1.2476548349        1.2791586537       -0.0160276403
  H        -3.1984127747        0.2371900028        0.0215984838
  H        -3.1992449090        1.7580019844        0.9144333274
  H        -3.2709254482        1.7650027187       -0.8356623142
  H        -0.7978929892        2.2808595521        0.0779967626
  H        -0.8305056258        0.6803119078        0.8125909947
  H        -0.8272731548        0.8333284310       -0.9328915248
       8
 i =       27, time =       13.500, E =       -14.9521266116
  C        -2.7941506285        1.2751317848        0.0120981824
  C        -1.2453943320        1.2792647131       -0.0166593346
  H        -3.2017532550        0.2432712409        0.0202957362
  H        -3.2011495443        1.7551226850        0.9099890648
  H        -3.2717756838        1.7618515939       -0.8300821303
  H        -0.7988850126        2.2761275152        0.0798963930
  H        -0.8280836429        0.6807401275        0.8047833822
  H        -0.8265447007        0.8379152902       -0.9298274057
       8
 i =       28, time =       14.000, E =       -14.9518338104
  C        -2.7960712899        1.2748770417        0.0130582609
  C        -1.2431671687        1.2793423816       -0.0172776352
  H        -3.2044803536        0.2498959995        0.0189922108
  H        -3.2027414518        1.7524307234        0.9058360696
  H        -3.2724976168        1.7595063074       -0.8256778746
  H        -0.8002820189        2.2717162720        0.0817250956
  H        -0.8259210899        0.6811855349        0.7972367470
  H        -0.8262174006        0.8425152409       -0.9271043595
       8
 i =       29, time =       14.500, E =       -14.9514197850
  C        -2.7979101024        1.2744984614        0.0140811916
  C        -1.2410271915        1.2793917063       -0.0178810439
  H        -3.2066983304        0.2565974442        0.0177107882
  H        -3.2041266802        1.7501264207        0.9023514665
  H        -3.2732079342        1.7581604724       -0.8227487473
  H        -0.8019271048        2.2680250811        0.0835199611
  H        -0.8238956383        0.6814112425        0.7903022443
  H        -0.8261708656        0.8469676640       -0.9251068512
       8
 i =       30, time =       15.000, E =       -14.9509894099
  C        -2.7996241151        1.2740121027        0.0151505272
  C        -1.2390245281        1.2794132245       -0.0184683049
  H        -3.2085362379        0.2628775535        0.0164696667
  H        -3.2054034453        1.7483906515        0.8998688294
  H        -3.2739693163        1.7579381264       -0.8214725650
  H        -0.8036747414        2.2654119440        0.0853168792
  H        -0.8218889801        0.6811983830        0.7842974420
  H        -0.8262918789        0.8511290037       -0.9241815598
       8
 i =       31, time =       15.500, E =       -14.9506579628
  C        -2.8011786411        1.2734433874        0.0162447920
  C        -1.2372018424        1.2794078603       -0.0190384268
  H        -3.2101345272        0.2682468396        0.0152817862
  H        -3.2066488613        1.7473668132        0.8986454987
  H        -3.2747808836        1.7588811674       -0.8218853445
  H        -0.8054051814        2.2641576312        0.0871464085
  H        -0.8198004468        0.6803681291        0.7794768060
  H        -0.8264877666        0.8548877596       -0.9246036955
       8
 i =       32, time =       16.000, E =       -14.9505129688
  C        -2.8025497743        1.2728249448        0.0173394683
  C        -1.2355911554        1.2793768034       -0.0195906856
  H        -3.2116289157        0.2722689970        0.0141548868
  H        -3.2079076216        1.7471451761        0.8988355706
  H        -3.2755779367        1.7609461087       -0.8238778334
  H        -0.8070363810        2.2644350714        0.0890298183
  H        -0.8175593436        0.6788013065        0.7760063570
  H        -0.8266978065        0.8581768570       -0.9265479176
       8
 i =       33, time =       16.500, E =       -14.9505844214
  C        -2.8037257761        1.2721932028        0.0184095334
  C        -1.2342117373        1.2793213920       -0.0201246043
  H        -3.2131332343        0.2746056849        0.0130922480
  H        -3.2091846415        1.7477521492        0.9004731211
  H        -3.2762410289        1.7640106601       -0.8272095572
  H        -0.8085314644        2.2662889966        0.0909759598
  H        -0.8151339874        0.6764524406        0.7739464338
  H        -0.8269007409        0.8609813170       -0.9300683980
       8
 i =       34, time =       17.000, E =       -14.9508347055
  C        -2.8047071709        1.2715842446        0.0194320378
  C        -1.2330694323        1.2792430206       -0.0206399155
  H        -3.2147238411        0.2750548315        0.0120940151
  H        -3.2104431202        1.7491464249        0.9034687515
  H        -3.2766123088        1.7678886068       -0.8315373181
  H        -0.8099004045        2.2696295919        0.0929795508
  H        -0.8125358562        0.6733557144        0.7732456398
  H        -0.8271170043        0.8633397701       -0.9350917028
       8
 i =       35, time =       17.500, E =       -14.9511722232
  C        -2.8055055736        1.2710296968        0.0203882192
  C        -1.2321575177        1.2791430904       -0.0211365137
  H        -3.2164284956        0.2735755755        0.0111588303
  H        -3.2116084100        1.7512227476        0.9076201296
  H        -3.2765157469        1.7723500401       -0.8364524885
  H        -0.8111956951        2.2742413969        0.0950212140
  H        -0.8098180929        0.6696216767        0.7737470834
  H        -0.8274052735        0.8653394942       -0.9414237429
       8
 i =       36, time =       18.000, E =       -14.9514834949
  C        -2.8061414364        1.2705534313        0.0212648258
  C        -1.2314589052        1.2790230076       -0.0216144095
  H        -3.2182220461        0.2702946133        0.0102854087
  H        -3.2125769101        1.7538226111        0.9126345651
  H        -3.2757776911        1.7771435639       -0.8415208558
  H        -0.8125029583        2.2798058298        0.0970692810
  H        -0.8070687198        0.6654252976        0.7752057763
  H        -0.8278540589        0.8671059315       -0.9487697075
       8
 i =       37, time =       18.500, E =       -14.9516714713
  C        -2.8066410386        1.2701696179        0.0220545804
  C        -1.2309492619        1.2788842209       -0.0220736919
  H        -3.2200298815        0.2654923499        0.0094737044
  H        -3.2132282683        1.7567499666        0.9181596047
  H        -3.2742449766        1.7820175819       -0.8463197934
  H        -0.8139282958        2.2859334093        0.0990830083
  H        -0.8043998875        0.6609875059        0.7773141170
  H        -0.8285699845        0.8687885378       -0.9567632793
       8
 i =       38, time =       19.000, E =       -14.9516861455
  C        -2.8070331153        1.2698822775        0.0227559296
  C        -1.2306005238        1.2787282793       -0.0225145016
  H        -3.2217383298        0.2595715891        0.0087254508
  H        -3.2134388108        1.7597894179        0.9238168598
  H        -3.2717990330        1.7867387390       -0.8504695022
  H        -0.8155845143        2.2922005442        0.1010166673
  H        -0.8019350315        0.6565532549        0.7797314162
  H        -0.8296647482        0.8705452664       -0.9650007175
       8
 i =       39, time =       19.500, E =       -14.9515375427
  C        -2.8073455231        1.2696861096        0.0233723332
  C        -1.2303843089        1.2785568889       -0.0229370130
  H        -3.2232097358        0.2530146875        0.0080440349
  H        -3.2130943159        1.7627244524        0.9292347103
  H        -3.2683655577        1.7911066598       -0.8536569716
  H        -0.8175781296        2.2981860552        0.1028239002
  H        -0.7997958495        0.6523691822        0.7821134368
  H        -0.8312426340        0.8725277648       -0.9730751171
       8
 i =       40, time =       20.000, E =       -14.9512885391
  C        -2.8076022955        1.2695681507        0.0239113505
  C        -1.2302748727        1.2783719552       -0.0233414207
  H        -3.2242993375        0.2463366037        0.0074338546
  H        -3.2121008039        1.7653538127        0.9340767594
  H        -3.2639200845        1.7949648325       -0.8556527213
  H        -0.8199984281        2.3035036179        0.1044618388
  H        -0.7980905212        0.6486632496        0.7841389638
  H        -0.8333898717        0.8748687235       -0.9806074138
       8
 i =       41, time =       20.500, E =       -14.9510320004
  C        -2.8078213009        1.2695097729        0.0243837076
  C        -1.2302514102        1.2781755964       -0.0237279261
  H        -3.2248712888        0.2400402671        0.0068993486
  H        -3.2103926985        1.7675049233        0.9380644474
  H        -3.2584901418        1.7982080153       -0.8563212040
  H        -0.8229092385        2.3078281521        0.1058946417
  H        -0.7969041254        0.6456279329        0.7855315097
  H        -0.8361665355        0.8776721701       -0.9872719399
       8
 i =       42, time =       21.000, E =       -14.9508608068
  C        -2.8080126146        1.2694886594        0.0248024387
  C        -1.2302996589        1.2779701308       -0.0240967206
  H        -3.2248121017        0.2345786209        0.0064439379
  H        -3.2079382550        1.7690439879        0.9409934298
  H        -3.2521546671        1.8007865685       -0.8556257889
  H        -0.8263434761        2.3109153221        0.1070962918
  H        -0.7962915421        0.6434074812        0.7860755803
  H        -0.8396011387        0.8810068214       -0.9928158113
       8
 i =       43, time =       21.500, E =       -14.9508399978
  C        -2.8081776079        1.2694805621        0.0251821074
  C        -1.2304128440        1.2777580424       -0.0244479671
  H        -3.2240407283        0.2303252258        0.0060690306
  H        -3.2047424880        1.7698828526        0.9427441466
  H        -3.2450411381        1.8027080199       -0.8536289677
  H        -0.8303001919        2.3126145209        0.1080526135
  H        -0.7962727904        0.6420892272        0.7856276448
  H        -0.8436876557        0.8849022338       -0.9970722056
       8
 i =       44, time =       22.000, E =       -14.9509882474
  C        -2.8083087074        1.2694608162        0.0255380590
  C        -1.2305920526        1.2775419311       -0.0247817808
  H        -3.2225152848        0.2275534170        0.0057731833
  H        -3.2008479358        1.7699829374        0.9432872183
  H        -3.2373206274        1.8040358783       -0.8504879331
  H        -0.8347437708        2.3128759276        0.1087625422
  H        -0.7968305653        0.6416985815        0.7841223445
  H        -0.8483846819        0.8893473925       -0.9999681568
       8
 i =       45, time =       22.500, E =       -14.9512728212
  C        -2.8083897607        1.2694057034        0.0258856219
  C        -1.2308461124        1.2773244575       -0.0250982131
  H        -3.2202368680        0.2264229539        0.0055514518
  H        -3.1963335395        1.7693565172        0.9426842099
  H        -3.2292006794        1.8048853750       -0.8464450647
  H        -0.8396049532        2.3117522151        0.1092386895
  H        -0.7979097583        0.6421973787        0.7815744437
  H        -0.8536164118        0.8942913913       -1.0015273114
       8
 i =       46, time =       23.000, E =       -14.9516188410
  C        -2.8083969605        1.2692938066        0.0262391836
  C        -1.2311910209        1.2771082888       -0.0253972443
  H        -3.2172509966        0.2269729278        0.0053949280
  H        -3.1913117683        1.7680654344        0.9410838652
  H        -3.2209157693        1.8054156204       -0.8418125872
  H        -0.8447835391        2.3093951152        0.1095071910
  H        -0.7994188724        0.6434854373        0.7780767344
  H        -0.8592752875        0.8996460444       -1.0018678849
       8
 i =       47, time =       23.500, E =       -14.9519305186
  C        -2.8083002982        1.2691074811        0.0266111058
  C        -1.2316489284        1.2768960531       -0.0256787900
  H        -3.2136470524        0.2291200962        0.0052904578
  H        -3.1859239569        1.7662171153        0.9387135393
  H        -3.2127152390        1.8058176090       -0.8369506820
  H        -0.8501527489        2.3060466029        0.1096067818
  H        -0.8012334222        0.6454054827        0.7737937550
  H        -0.8652263051        0.9052904330       -1.0011954976
       8
 i =       48, time =       24.000, E =       -14.9521191960
  C        -2.8080655175        1.2688344906        0.0270105189
  C        -1.2322466535        1.2766903090       -0.0259427268
  H        -3.2095558320        0.2326625551        0.0052205418
  H        -3.1803337639        1.7639575862        0.9358653153
  H        -3.2048489055        1.8062979225       -0.8322389268
  H        -0.8555653485        2.3020241345        0.1095870007
  H        -0.8032015426        0.6477517886        0.7689509315
  H        -0.8713130790        0.9110775054       -0.9997904076
       8
 i =       49, time =       24.500, E =       -14.9521307576
  C        -2.8076565176        1.2684697202        0.0274421416
  C        -1.2330137020        1.2764935341       -0.0261889421
  H        -3.2051450475        0.2372894664        0.0051634521
  H        -3.1747186764        1.7614611964        0.9328762709
  H        -3.1975511615        1.8070587355       -0.8280424451
  H        -0.8608615840        2.2976994439        0.1095054256
  H        -0.8051520423        0.6502829031        0.7638187069
  H        -0.8773657040        0.9168428163       -0.9979884510
       8
 i =       50, time =       25.000, E =       -14.9519642410
  C        -2.8070381048        1.2680167170        0.0279053698
  C        -1.2339797997        1.2763081352       -0.0264174108
  H        -3.2006123668        0.2425981557        0.0050936234
  H        -3.1692597064        1.7589170095        0.9301029944
  H        -3.1910250407        1.8082758421       -0.8246757507
  H        -0.8658788287        2.2934709061        0.1094239293