       8
 i =        0, time =        0.000, E =       -14.9532117800
  C         0.0000218817        0.0000370329       -0.0000080399
  C        -0.0000569215        0.0000153253       -0.0000505175
  H         0.0005559446       -0.0003400560        0.0002488641
  H         0.0005163265       -0.0001362968        0.0001225295
  H         0.0001623331       -0.0001248424        0.0004371924
  H        -0.0000166064       -0.0001207439        0.0002893650
  H        -0.0004515628       -0.0002549834       -0.0001748800
  H        -0.0003488975        0.0003530180       -0.0002252962
       8
 i =        1, time =        0.500, E =       -14.9531392323
  C         0.0000186250        0.0000341051       -0.0000069878
  C        -0.0000542221        0.0000162641       -0.0000506688
  H         0.0005449356       -0.0003125943        0.0002381956
  H         0.0005037052       -0.0001397096        0.0001289777
  H         0.0001630074       -0.0001367244        0.0004217946
  H        -0.0000064711       -0.0001227923        0.0002881778
  H        -0.0004457173       -0.0002434528       -0.0001642562
  H        -0.0003351188        0.0003546014       -0.0002255638
       8
 i =        2, time =        1.000, E =       -14.9529875147
  C         0.0000160324        0.0000288313       -0.0000028741
  C        -0.0000522473        0.0000166213       -0.0000516230
  H         0.0005300342       -0.0002577680        0.0002185327
  H         0.0004756078       -0.0001415469        0.0001167980
  H         0.0001642516       -0.0001526368        0.0003967139
  H         0.0000040385       -0.0001092381        0.0002760136
  H        -0.0004326628       -0.0002293092       -0.0001525742
  H        -0.0003093996        0.0003479302       -0.0002055134
       8
 i =        3, time =        1.500, E =       -14.9527853202
  C         0.0000141620        0.0000215701        0.0000039828
  C        -0.0000509590        0.0000164708       -0.0000532449
  H         0.0005111884       -0.0001807157        0.0001912024
  H         0.0004330345       -0.0001418871        0.0000872682
  H         0.0001650718       -0.0001714404        0.0003632209
  H         0.0000147396       -0.0000811088        0.0002533809
  H        -0.0004123201       -0.0002129932       -0.0001402677
  H        -0.0002727389        0.0003333963       -0.0001669115
       8
 i =        4, time =        2.000, E =       -14.9525714236
  C         0.0000130225        0.0000127955        0.0000130367
  C        -0.0000502476        0.0000159748       -0.0000552954
  H         0.0004884531       -0.0000881399        0.0001579689
  H         0.0003777936       -0.0001409236        0.0000435745
  H         0.0001642291       -0.0001917130        0.0003229741
  H         0.0000254298       -0.0000408038        0.0002212945
  H        -0.0003848056       -0.0001949158       -0.0001276936
  H        -0.0002268540        0.0003117037       -0.0001133604
       8
 i =        5, time =        2.500, E =       -14.9523837189
  C         0.0000125718        0.0000030580        0.0000235527
  C        -0.0000499399        0.0000153719       -0.0000574511
  H         0.0004620050        0.0000122405        0.0001208989
  H         0.0003123807       -0.0001389411       -0.0000094269
  H         0.0001603530       -0.0002118586        0.0002779151
  H         0.0000358917        0.0000080767        0.0001812127
  H        -0.0003504484       -0.0001754355       -0.0001151119
  H        -0.0001740662        0.0002838202       -0.0000500227
       8
 i =        6, time =        3.000, E =       -14.9522486441
  C         0.0000127223       -0.0000070516        0.0000346690
  C        -0.0000498145        0.0000149542       -0.0000593365
  H         0.0004321428        0.0001122124        0.0000822292
  H         0.0002397821       -0.0001362816       -0.0000656837
  H         0.0001520708       -0.0002302289        0.0002301426
  H         0.0000458987        0.0000610464        0.0001349332
  H        -0.0003097966       -0.0001548401       -0.0001026712
  H        -0.0001171127        0.0002509077        0.0000168659
       8
 i =        7, time =        3.500, E =       -14.9521744310
  C         0.0000133519       -0.0000169359        0.0000454739
  C        -0.0000496219        0.0000150361       -0.0000605682
  H         0.0003992754        0.0002035663        0.0000442361
  H         0.0001632228       -0.0001333032       -0.0001186072
  H         0.0001381417       -0.0002452510        0.0001817710
  H         0.0000552210        0.0001131633        0.0000844610
  H        -0.0002636196       -0.0001333316       -0.0000904005
  H        -0.0000589100        0.0002142424        0.0000806395
       8
 i =        8, time =        4.000, E =       -14.9521504810
  C         0.0000143176       -0.0000260239        0.0000550921
  C        -0.0000491079        0.0000159187       -0.0000608007
  H         0.0003639018        0.0002785859        0.0000091047
  H         0.0000858960       -0.0001303385       -0.0001618222
  H         0.0001175899       -0.0002555526        0.0001347864
  H         0.0000636336        0.0001595204        0.0000318611
  H        -0.0002128998       -0.0001110208       -0.0000782090
  H        -0.0000022977        0.0001751338        0.0001349109
       8
 i =        9, time =        4.500, E =       -14.9521530693
  C         0.0000154689       -0.0000338059        0.0000627675
  C        -0.0000480360        0.0000178535       -0.0000597696
  H         0.0003265820        0.0003305530       -0.0000212061
  H         0.0000107111       -0.0001276586       -0.0001898857
  H         0.0000898273       -0.0002600789        0.0000909065
  H         0.0000709241        0.0001957324       -0.0000208846
  H        -0.0001588114       -0.0000879307       -0.0000658994
  H         0.0000501988        0.0001348530        0.0001742380
       8
 i =       10, time =        5.000, E =       -14.9521553513
  C         0.0000166585       -0.0000398700        0.0000679330
  C        -0.0000462067        0.0000210130       -0.0000573227
  H         0.0002879022        0.0003542743       -0.0000451044
  H        -0.0000599037       -0.0001254489       -0.0001988636
  H         0.0000547561       -0.0002581911        0.0000514587
  H         0.0000769031        0.0002183580       -0.0000720014
  H        -0.0001026835       -0.0000640123       -0.0000531921
  H         0.0000965572        0.0000945754        0.0001946507
       8
 i =       11, time =        5.500, E =       -14.9521380841
  C         0.0000177491       -0.0000439411        0.0000702602
  C        -0.0000434718        0.0000254701       -0.0000534360
  H         0.0002484363        0.0003466045       -0.0000615036
  H        -0.0001241276       -0.0001237961       -0.0001866916
  H         0.0000128374       -0.0002497340        0.0000172917
  H         0.0000814121        0.0002251984       -0.0001200140
  H        -0.0000459470       -0.0000391732       -0.0000397658
  H         0.0001353757        0.0000553428        0.0001939738
       8
 i =       12, time =        6.000, E =       -14.9520972467
  C         0.0000186180       -0.0000459168        0.0000696833
  C        -0.0000397432        0.0000311895       -0.0000482131
  H         0.0002087065        0.0003069109       -0.0000699434
  H        -0.0001807991       -0.0001226887       -0.0001533024
  H        -0.0000348819       -0.0002350660       -0.0000112687
  H         0.0000843319        0.0002154559       -0.0001638025
  H         0.0000099297       -0.0000133147       -0.0000253065
  H         0.0001659192        0.0000180416        0.0001719337
       8
 i =       13, time =        6.500, E =       -14.9520458503
  C         0.0000191585       -0.0000458941        0.0000663971
  C        -0.0000349954        0.0000380301       -0.0000418722
  H         0.0001691478        0.0002373838       -0.0000706704
  H        -0.0002293988       -0.0001220272       -0.0001005220
  H        -0.0000867929       -0.0002150450       -0.0000344166
  H         0.0000855889        0.0001897493       -0.0002026235
  H         0.0000635097        0.0000136281       -0.0000095583
  H         0.0001881024       -0.0000166047        0.0001300716
       8
 i =       14, time =        7.000, E =       -14.9520092670
  C         0.0000192814       -0.0000441769        0.0000608305
  C        -0.0000292651        0.0000457587       -0.0000347223
  H         0.0001300851        0.0001430776       -0.0000646489
  H        -0.0002699837       -0.0001216406       -0.0000318053
  H        -0.0001408054       -0.0001909626       -0.0000528050
  H         0.0000851582        0.0001499985       -0.0002360979
  H         0.0001134629        0.0000416415        0.0000076212
  H         0.0002024222       -0.0000480317        0.0000715060
       8
 i =       15, time =        7.500, E =       -14.9520156868
  C         0.0000189168       -0.0000412585        0.0000536007
  C        -0.0000226468        0.0000540695       -0.0000271352
  H         0.0000917304        0.0000316060       -0.0000534827
  H        -0.0003030958       -0.0001213073        0.0000481196
  H        -0.0001944802       -0.0001644314       -0.0000674309
  H         0.0000830624        0.0000992210       -0.0002641764
  H         0.0001586369        0.0000705937        0.0000262126
  H         0.0002098591       -0.0000758245        0.0000006080
       8
 i =       16, time =        8.000, E =       -14.9520851116
  C         0.0000180169       -0.0000377748        0.0000454515
  C        -0.0000152869        0.0000626079       -0.0000195158
  H         0.0000542002       -0.0000875417       -0.0000392421
  H        -0.0003296505       -0.0001207761        0.0001336674
  H        -0.0002452010       -0.0001372394       -0.0000794866
  H         0.0000793680        0.0000412645       -0.0002870887
  H         0.0001981133        0.0001002063        0.0000460020
  H         0.0002117630       -0.0000997034       -0.0000773706
       8
 i =       17, time =        8.500, E =       -14.9522208891
  C         0.0000165589       -0.0000344331        0.0000371830
  C        -0.0000073755        0.0000709958       -0.0000122743
  H         0.0000175522       -0.0002039950       -0.0000242164
  H        -0.0003508196       -0.0001197887        0.0002188240
  H        -0.0002903724       -0.0001111845       -0.0000901905
  H         0.0000741787       -0.0000194935       -0.0003052822
  H         0.0002312494        0.0001300399        0.0000665652
  H         0.0002097320       -0.0001195070       -0.0001566815
       8
 i =       18, time =        9.000, E =       -14.9524068865
  C         0.0000145466       -0.0000319283        0.0000295791
  C         0.0000008637        0.0000788570       -0.0000058007
  H        -0.0000181675       -0.0003076530       -0.0000106305
  H        -0.0003679104       -0.0001180994        0.0002975715
  H        -0.0003276203       -0.0000879095       -0.0001006237
  H         0.0000676259       -0.0000784601       -0.0003193545
  H         0.0002577001        0.0001594965        0.0000872724
  H         0.0002054884       -0.0001351732       -0.0002314649
       8
 i =       19, time =        9.500, E =       -14.9526112848
  C         0.0000120115       -0.0000308609        0.0000233384
  C         0.0000091852        0.0000858406       -0.0000004412
  H        -0.0000528783       -0.0003897903       -0.0000003803
  H        -0.0003822409       -0.0001154939        0.0003643025
  H        -0.0003549731       -0.0000687565       -0.0001115876
  H         0.0000598574       -0.0001311468       -0.0003299817
  H         0.0002774198        0.0001878384        0.0001073144
  H         0.0002007499       -0.0001467177       -0.0002961280
       8
 i =       20, time =       10.000, E =       -14.9527955452
  C         0.0000090097       -0.0000316726        0.0000190164
  C         0.0000173365        0.0000916431        0.0000035220
  H        -0.0000864309       -0.0004439288        0.0000051709
  H        -0.0003950096       -0.0001118043        0.0004142209
  H        -0.0003710099       -0.0000546559       -0.0001235043
  H         0.0000510247       -0.0001734812       -0.0003378436
  H         0.0002906442        0.0002142240        0.0001257474
  H         0.0001970993       -0.0001542083       -0.0003457201
       8
 i =       21, time =       10.500, E =       -14.9529254011
  C         0.0000056161       -0.0000346083        0.0000169799
  C         0.0000250753        0.0000960281        0.0000058903
  H        -0.0001185928       -0.0004663562        0.0000053043
  H        -0.0004071628       -0.0001069223        0.0004437152
  H        -0.0003749567       -0.0000460605       -0.0001363669
  H         0.0000412708       -0.0002021061       -0.0003435483
  H         0.0002978539        0.0002377568        0.0001415549
  H         0.0001958505       -0.0001577360       -0.0003762954
       8
 i =       22, time =       11.000, E =       -14.9529802956
  C         0.0000019167       -0.0000397063        0.0000173787
  C         0.0000321868        0.0000988416        0.0000065639
  H        -0.0001490505       -0.0004562676       -0.0000000350
  H        -0.0004192662       -0.0001008065        0.0004506810
  H        -0.0003667278       -0.0000429239       -0.0001497371
  H         0.0000307169       -0.0002146479       -0.0003475579
  H         0.0002997210        0.0002575442        0.0001537205
  H         0.0001979172       -0.0001573837       -0.0003852501
       8
 i =       23, time =       11.500, E =       -14.9529584871
  C        -0.0000020032       -0.0000468115        0.0000201338
  C         0.0000385018        0.0001000234        0.0000055533
  H        -0.0001774297       -0.0004155856       -0.0000102951
  H        -0.0004313942       -0.0000934874        0.0004347585
  H        -0.0003469131       -0.0000447261       -0.0001627923
  H         0.0000194531       -0.0002099350       -0.0003501223
  H         0.0002970458        0.0002727623        0.0001613074
  H         0.0002036974       -0.0001531929       -0.0003715976
       8
 i =       24, time =       12.000, E =       -14.9528765124
  C        -0.0000060690       -0.0000556043        0.0000249442
  C         0.0000439118        0.0000996120        0.0000029833
  H        -0.0002033235       -0.0003485633       -0.0000244235
  H        -0.0004430588       -0.0000850656        0.0003974419
  H        -0.0003167128       -0.0000505364       -0.0001744118
  H         0.0000075323       -0.0001881389       -0.0003512276
  H         0.0002906903        0.0002827185        0.0001635343
  H         0.0002129928       -0.0001451378       -0.0003361390
       8
 i =       25, time =       12.500, E =       -14.9527633738
  C        -0.0000102251       -0.0000656369        0.0000313127
  C         0.0000483786        0.0000977416       -0.0000009127
  H        -0.0002263232       -0.0002612711       -0.0000409954
  H        -0.0004532053       -0.0000757066        0.0003419981
  H        -0.0002778342       -0.0000591028       -0.0001832821
  H        -0.0000050305       -0.0001508117       -0.0003505729
  H         0.0002814987        0.0002869129        0.0001598489
  H         0.0002249800       -0.0001331095       -0.0002814891
       8
 i =       26, time =       13.000, E =       -14.9526513250
  C        -0.0000144369       -0.0000763705        0.0000385892
  C         0.0000519370        0.0000946304       -0.0000058094
  H        -0.0002460477       -0.0001610548       -0.0000583458
  H        -0.0004602849       -0.0000656296        0.0002731956
  H        -0.0002323572       -0.0000689596       -0.0001880187
  H        -0.0000182535       -0.0001007969       -0.0003475805
  H         0.0002702269        0.0002850884        0.0001499870
  H         0.0002382533       -0.0001169212       -0.0002119153
       8
 i =       27, time =       13.500, E =       -14.9525660662
  C        -0.0000186888       -0.0000872106        0.0000460293
  C         0.0000546869        0.0000905611       -0.0000113184
  H        -0.0002621691       -0.0000560114       -0.0000746933
  H        -0.0004624071       -0.0000550913        0.0001968570
  H        -0.0001825829       -0.0000785442       -0.0001872899
  H        -0.0000321767       -0.0000420044       -0.0003414475
  H         0.0002574857        0.0002772648        0.0001340113
  H         0.0002509481       -0.0000963355       -0.0001329810
       8
 i =       28, time =       14.000, E =       -14.9525194601
  C        -0.0000229755       -0.0000975396        0.0000528627
  C         0.0000567796        0.0000858544       -0.0000170252
  H        -0.0002744337        0.0000455130       -0.0000882557
  H        -0.0004575653       -0.0000443672        0.0001192654
  H        -0.0001308725       -0.0000863177       -0.0001799358
  H        -0.0000468457        0.0000209311       -0.0003312365
  H         0.0002436926        0.0002637555        0.0001123288
  H         0.0002609357       -0.0000711165       -0.0000510240
       8
 i =       29, time =       14.500, E =       -14.9525070689
  C        -0.0000272910       -0.0001067500        0.0000583654
  C         0.0000583954        0.0000808386       -0.0000225307
  H        -0.0002826777        0.0001354135       -0.0000973583
  H        -0.0004438963       -0.0000337312        0.0000465245
  H        -0.0000794871       -0.0000908816       -0.0001650750
  H        -0.0000622929        0.0000830776       -0.0003159971
  H         0.0002290500        0.0002451635        0.0000856818
  H         0.0002660653       -0.0000410972        0.0000274680
       8
 i =       30, time =       15.000, E =       -14.9525113063
  C        -0.0000316176       -0.0001142789        0.0000619264
  C         0.0000597200        0.0000758190       -0.0000274898
  H        -0.0002868380        0.0002063284       -0.0001005428
  H        -0.0004199357       -0.0000234362       -0.0000160391
  H        -0.0000304369       -0.0000910867       -0.0001421935
  H        -0.0000785189        0.0001396659       -0.0002949029
  H         0.0002135447        0.0002223545        0.0000551106
  H         0.0002644175       -0.0000062520        0.0000964940
       8
 i =       31, time =       15.500, E =       -14.9525090889
  C        -0.0000359181       -0.0001196459        0.0000631028
  C         0.0000609205        0.0000710515       -0.0000316421
  H        -0.0002869560        0.0002521665       -0.0000966789
  H        -0.0003848257       -0.0000136971       -0.0000643510
  H         0.0000146514       -0.0000861276       -0.0001112122
  H        -0.0000954782        0.0001865239       -0.0002673809
  H         0.0001969756        0.0001964083        0.0000218918
  H         0.0002545296        0.0000332396        0.0001510987
       8
 i =       32, time =       16.000, E =       -14.9524813318
  C        -0.0000401328       -0.0001224941        0.0000616568
  C         0.0000621261        0.0000667221       -0.0000348306
  H        -0.0002831743        0.0002686519       -0.0000850767
  H        -0.0003384458       -0.0000046781       -0.0000958827
  H         0.0000546381       -0.0000756167       -0.0000725275
  H        -0.0001130708        0.0002204311       -0.0002332189
  H         0.0001790044        0.0001685514       -0.0000125464
  H         0.0002355600        0.0000769513        0.0001877811
       8
 i =       33, time =       16.500, E =       -14.9524209896
  C        -0.0000441824       -0.0001226308        0.0000575756
  C         0.0000634136        0.0000629356       -0.0000370065
  H        -0.0002757237        0.0002538382       -0.0000655925
  H        -0.0002814557        0.0000035148       -0.0001097570
  H         0.0000889377       -0.0000596315       -0.0000270229
  H        -0.0001311416        0.0002393582       -0.0001926321
  H         0.0001592269        0.0001400769       -0.0000467218
  H         0.0002073737        0.0001241963        0.0002047173
       8
 i =       34, time =       17.000, E =       -14.9523367945
  C        -0.0000479736       -0.0001200616        0.0000510701
  C         0.0000648017        0.0000597135       -0.0000382222
  H        -0.0002649030        0.0002085066       -0.0000387081
  H        -0.0002152608        0.0000108373       -0.0001066922
  H         0.0001175328       -0.0000387243        0.0000239561
  H        -0.0001494863        0.0002425762       -0.0001462862
  H         0.0001372500        0.0001122616       -0.0000791981
  H         0.0001705500        0.0001740427        0.0002017979
       8
 i =       35, time =       17.500, E =       -14.9522512414
  C        -0.0000514069       -0.0001150079        0.0000425580
  C         0.0000662492        0.0000569996       -0.0000386152
  H        -0.0002510519        0.0001363466       -0.0000055643
  H        -0.0001419089        0.0000173054       -0.0000888081
  H         0.0001409430       -0.0000138957        0.0000786569
  H        -0.0001678645        0.0002306406       -0.0000952764
  H         0.0001127762        0.0000862811       -0.0001086830
  H         0.0001263209        0.0002253525        0.0001805099
       8
 i =       36, time =       18.000, E =       -14.9521933248
  C        -0.0000543832       -0.0001079009        0.0000326297
  C         0.0000676579        0.0000546721       -0.0000383862
  H        -0.0002345223        0.0000438105        0.0000320760
  H        -0.0000639449        0.0000229896       -0.0000593521
  H         0.0001601394        0.0000134740        0.0001350078
  H        -0.0001860167        0.0002052727       -0.0000410701
  H         0.0000856799        0.0000631370       -0.0001341127
  H         0.0000764630        0.0002768369        0.0001437058
       8
 i =       37, time =       18.500, E =       -14.9521884448
  C        -0.0000568069       -0.0000993455        0.0000220027
  C         0.0000688812        0.0000525599       -0.0000377771
  H        -0.0002156570       -0.0000604204        0.0000719484
  H         0.0000157478        0.0000280075       -0.0000223935
  H         0.0001764084        0.0000417333        0.0001907378
  H        -0.0002036819        0.0001691639        0.0000145749
  H         0.0000560615        0.0000436033       -0.0001547099
  H         0.0000231609        0.0003271205        0.0000953079
       8
 i =       38, time =       19.000, E =       -14.9522490442
  C        -0.0000585872       -0.0000900563        0.0000114657
  C         0.0000697342        0.0000504606       -0.0000370479
  H        -0.0001947763       -0.0001663222        0.0001114847
  H         0.0000941198        0.0000325116        0.0000175090
  H         0.0001911881        0.0000690951        0.0002435127
  H        -0.0002206165        0.0001257314        0.0000697092
  H         0.0000242822        0.0000281907       -0.0001700206
  H        -0.0000311409        0.0003748056        0.0000399788
       8
 i =       39, time =       19.500, E =       -14.9523694166
  C        -0.0000596358       -0.0000807755        0.0000018172
  C         0.0000700057        0.0000481593       -0.0000364566
  H        -0.0001721777       -0.0002636478        0.0001480646
  H         0.0001681268        0.0000366763        0.0000556458
  H         0.0002058894        0.0000937895        0.0002910831
  H        -0.0002366106        0.0000788460        0.0001222983
  H        -0.0000090262        0.0000171317       -0.0001799257
  H        -0.0000838909        0.0004185362       -0.0000172209
       8
 i =       40, time =       20.000, E =       -14.9525265739
  C        -0.0000598656       -0.0000721862       -0.0000061980
  C         0.0000694725        0.0000454467       -0.0000362402
  H        -0.0001481447       -0.0003430885        0.0001792795
  H         0.0002349011        0.0000406814        0.0000874980
  H         0.0002217246        0.0001142159        0.0003314281
  H        -0.0002515000        0.0000325453        0.0001703317
  H        -0.0000429773        0.0000103866       -0.0001846272
  H        -0.0001325802        0.0004570569       -0.0000711786
       8
 i =       41, time =       20.500, E =       -14.9526868106
  C        -0.0000591905       -0.0000648391       -0.0000119477
  C         0.0000679146        0.0000421371       -0.0000365979
  H        -0.0001229604       -0.0003972722        0.0002031649
  H         0.0002919191        0.0000446938        0.0001090857
  H         0.0002395611        0.0001290804        0.0003628870
  H        -0.0002651745       -0.0000092593        0.0002119329
  H        -0.0000764679        0.0000076662       -0.0001846159
  H        -0.0001748923        0.0004892669       -0.0001170805
       8
 i =       42, time =       21.000, E =       -14.9528155652
  C        -0.0000575283       -0.0000591024       -0.0000149638
  C         0.0000651323        0.0000380852       -0.0000376742
  H        -0.0000969188       -0.0004214326        0.0002183655
  H         0.0003371618        0.0000488472        0.0001173080
  H         0.0002598175        0.0001375023        0.0003842649
  H        -0.0002775784       -0.0000430667        0.0002454634
  H        -0.0001082392        0.0000084713       -0.0001806193
  H        -0.0002088468        0.0005142668       -0.0001507594
       8
 i =       43, time =       21.500, E =       -14.9528872361
  C        -0.0000548077       -0.0000551422       -0.0000149822
  C         0.0000609623        0.0000332012       -0.0000395446
  H        -0.0000703298       -0.0004137047        0.0002242176
  H         0.0003692613        0.0000532217        0.0001102630
  H         0.0002824079        0.0001390829        0.0003949056
  H        -0.0002887050       -0.0000660595        0.0002696204
  H        -0.0001369484        0.0000121409       -0.0001735392
  H        -0.0002329367        0.0005313971       -0.0001690345
       8
 i =       44, time =       22.000, E =       -14.9528919176
  C        -0.0000509776       -0.0000529273       -0.0000119687
  C         0.0000552940        0.0000274651       -0.0000422023
  H        -0.0000435179       -0.0003750668        0.0002207525
  H         0.0003876147        0.0000578236        0.0000875148
  H         0.0003067367        0.0001339338        0.0003947280
  H        -0.0002985842       -0.0000763527        0.0002835223
  H        -0.0001612480        0.0000179077       -0.0001643835
  H        -0.0002462476        0.0005402646       -0.0001700203
       8
 i =       45, time =       22.500, E =       -14.9528371801
  C        -0.0000460162       -0.0000522540       -0.0000061269
  C         0.0000480818        0.0000209362       -0.0000455497
  H        -0.0000168132       -0.0003090084        0.0002086367
  H         0.0003924443        0.0000625696        0.0000502580
  H         0.0003317442        0.0001226581        0.0003842190
  H        -0.0003072638       -0.0000731864        0.0002867722
  H        -0.0001798752        0.0000249618       -0.0001541870
  H        -0.0002485460        0.0005407530       -0.0001533676
       8
 i =       46, time =       23.000, E =       -14.9527446352
  C        -0.0000399371       -0.0000527815        0.0000021132
  C         0.0000393540        0.0000137575       -0.0000493974
  H         0.0000094593       -0.0002210459        0.0001890724
  H         0.0003847813        0.0000672784        0.0000013173
  H         0.0003559866        0.0001062975        0.0003643951
  H        -0.0003147866       -0.0000570374        0.0002794882
  H        -0.0001917408        0.0000325162       -0.0001439321
  H        -0.0002403181        0.0005330138       -0.0001203900
       8
 i =       47, time =       23.500, E =       -14.9526424496
  C        -0.0000327910       -0.0000540699        0.0000121266
  C         0.0000292151        0.0000061531       -0.0000534719
  H         0.0000349918       -0.0001181827        0.0001636815
  H         0.0003663662        0.0000716732       -0.0000550384
  H         0.0003777482        0.0000862470        0.0003367269
  H        -0.0003211669       -0.0000296266        0.0002622971
  H        -0.0001960130        0.0000398706       -0.0001344705
  H        -0.0002227442        0.0005174378       -0.0000740345
       8
 i =       48, time =       24.000, E =       -14.9525561936
  C        -0.0000246616       -0.0000556165        0.0000231442
  C         0.0000178416       -0.0000015840       -0.0000574367
  H         0.0000595027       -0.0000083713        0.0001343814
  H         0.0003394722        0.0000753986       -0.0001134699
  H         0.0003951759        0.0000641450        0.0003030321
  H        -0.0003263717        0.0000061969        0.0002362886
  H        -0.0001921925        0.0000464702       -0.0001264525
  H        -0.0001976027        0.0004946128       -0.0000186664
       8
 i =       49, time =       24.500, E =       -14.9525008880
  C        -0.0000156575       -0.0000568907        0.0000343198
  C         0.0000054716       -0.0000091118       -0.0000609225
  H         0.0000827430        0.0001000025        0.0001032619
  H         0.0003066627        0.0000780507       -0.0001681143
  H         0.0004064206        0.0000417482        0.0002653494
  H        -0.0003303082        0.0000466982        0.0002029270
  H        -0.0001801732        0.0000519559       -0.0001202663
  H        -0.0001671066        0.0004652696        0.0000403288
       8
 i =       50, time =       25.000, E =       -14.9524768580
  C        -0.0000059009       -0.0000573670        0.0000448058
  C        -0.0000076106       -0.0000160691       -0.0000635671
  H         0.0001045009        0.0001986177        0.0000724623
  H         0.0002705246        0.0000792172       -0.0002132220
  H         0.0004097836        0.0000207965        0.0002257947
  H        -0.0003328224        0.0000876090        0.0001639313