 DBCSR| CPU Multiplication driver                                           XSMM
 DBCSR| Multrec recursion limit                                              512
 DBCSR| Multiplication stack size                                           1000
 DBCSR| Maximum elements for images                                    UNLIMITED
 DBCSR| Multiplicative factor virtual images                                   1
 DBCSR| Use multiplication densification                                       T
 DBCSR| Multiplication size stacks                                             3
 DBCSR| Use memory pool for CPU allocation                                     F
 DBCSR| Number of 3D layers                                               SINGLE
 DBCSR| Use MPI memory allocation                                              F
 DBCSR| Use RMA algorithm                                                      F
 DBCSR| Use Communication thread                                               T
 DBCSR| Communication thread load                                             87
 DBCSR| MPI: My node id                                                        0
 DBCSR| MPI: Number of nodes                                                  24
 DBCSR| OMP: Current number of threads                                         1
 DBCSR| OMP: Max number of threads                                             1
 DBCSR| Split modifier for TAS multiplication algorithm                  1.0E+00


  **** **** ******  **  PROGRAM STARTED AT               2021-10-27 16:18:30.554
 ***** ** ***  *** **   PROGRAM STARTED ON                                 node2
 **    ****   ******    PROGRAM STARTED BY                               lujunbo
 ***** **    ** ** **   PROGRAM PROCESS ID                                713193
  **** **  *******  **  PROGRAM STARTED IN /home/lujunbo/WORK/deepmd/c2h6/mtd/tr
                                           ain_4_sys/cp2k_md/sys_4/data/task_279
                                           5

 CP2K| version string:                                          CP2K version 8.2
 CP2K| source code revision number:                                  git:310b7ab
 CP2K| cp2kflags: omp libint fftw3 libxc elpa parallel mpi3 scalapack xsmm plume
 CP2K|            d2 spglib mkl libvori libbqb
 CP2K| is freely available from                            https://www.cp2k.org/
 CP2K| Program compiled at                          Tue Jun  1 15:18:23 CST 2021
 CP2K| Program compiled on                                                   mgr
 CP2K| Program compiled for                                                local
 CP2K| Data directory path                       /home/lujunbo/bin/cp2k-8.2/data
 CP2K| Input file name                                                 input.inp

 GLOBAL| Force Environment number                                              1
 GLOBAL| Basis set file name            /home/lujunbo/bin/cp2k-8.2/data/BASIS_MO
 GLOBAL| Potential file name            /home/lujunbo/bin/cp2k-8.2/data/POTENTIA
 GLOBAL| MM Potential file name                                     MM_POTENTIAL
 GLOBAL| Coordinate file name                                      __STD_INPUT__
 GLOBAL| Method name                                                        CP2K
 GLOBAL| Project name                                                       cp2k
 GLOBAL| Run type                                                   ENERGY_FORCE
 GLOBAL| FFT library                                                       FFTW3
 GLOBAL| Diagonalization library                                            ELPA
 GLOBAL| Minimum number of eigenvectors for ELPA usage                        16
 GLOBAL| Orthonormality check for eigenvectors                          DISABLED
 GLOBAL| Matrix multiplication library                                    SCALAP
 GLOBAL| All-to-all communication in single precision                          F
 GLOBAL| FFTs using library dependent lengths                                  F
 GLOBAL| Grid backend                                                       AUTO
 GLOBAL| Global print level                                                  LOW
 GLOBAL| MPI I/O enabled                                                       T
 GLOBAL| Total number of message passing processes                            24
 GLOBAL| Number of threads for this process                                    1
 GLOBAL| This output is from process                                           0
 GLOBAL| CPU model name             Intel(R) Xeon(R) Platinum 9242 CPU @ 2.30GHz
 GLOBAL| CPUID                                                              1003

 MEMORY| system memory details [Kb]
 MEMORY|                        rank 0           min           max       average
 MEMORY| MemTotal            394609400     394609400     394609400     394609400
 MEMORY| MemFree             120697560     120697560     120697560     120697560
 MEMORY| Buffers                164324        164324        164324        164324
 MEMORY| Cached              242940508     242940508     242940508     242940508
 MEMORY| Slab                  3143548       3143548       3143548       3143548
 MEMORY| SReclaimable          2425516       2425516       2425516       2425516
 MEMORY| MemLikelyFree       366227908     366227908     366227908     366227908


 GENERATE|  Preliminary Number of Bonds generated:                             0
 GENERATE|  Achieved consistency in connectivity generation.

 *******************************************************************************
 *******************************************************************************
 **                                                                           **
 **     #####                         ##              ##                      **
 **    ##   ##            ##          ##              ##                      **
 **   ##     ##                       ##            ######                    **
 **   ##     ##  ##   ##  ##   #####  ##  ##   ####   ##    #####    #####    **
 **   ##     ##  ##   ##  ##  ##      ## ##   ##      ##   ##   ##  ##   ##   **
 **   ##  ## ##  ##   ##  ##  ##      ####     ###    ##   ######   ######    **
 **    ##  ###   ##   ##  ##  ##      ## ##      ##   ##   ##       ##        **
 **     #######   #####   ##   #####  ##  ##  ####    ##    #####   ##        **
 **           ##                                                    ##        **
 **                                                                           **
 **                                                ... make the atoms dance   **
 **                                                                           **
 **            Copyright (C) by CP2K developers group (2000-2021)             **
 **                      J. Chem. Phys. 152, 194103 (2020)                    **
 **                                                                           **
 *******************************************************************************


 TOTAL NUMBERS AND MAXIMUM NUMBERS

  Total number of            - Atomic kinds:                                   2
                             - Atoms:                                          8
                             - Shell sets:                                     8
                             - Shells:                                        28
                             - Primitive Cartesian functions:                 40
                             - Cartesian basis functions:                     58
                             - Spherical basis functions:                     56

  Maximum angular momentum of- Orbital basis functions:                        2
                             - Local part of the GTH pseudopotential:          2
                             - Non-local part of the GTH pseudopotential:      0


 SCF PARAMETERS         Density guess:                                   RESTART
                        --------------------------------------------------------
                        max_scf:                                             100
                        max_scf_history:                                       0
                        max_diis:                                              4
                        --------------------------------------------------------
                        eps_scf:                                        1.00E-06
                        eps_scf_history:                                0.00E+00
                        eps_diis:                                       1.00E-01
                        eps_eigval:                                     1.00E-05
                        --------------------------------------------------------
                        level_shift [a.u.]:                                 0.00
                        --------------------------------------------------------
                        Outer loop SCF in use 
                        No variables optimised in outer loop
                        eps_scf                                         1.00E-06
                        max_scf                                                6
                        No outer loop optimization
                        step_size                                       5.00E-01

 Number of electrons:                                                         14
 Number of occupied orbitals:                                                  7
 Number of molecular orbitals:                                                 7

 Number of orbital functions:                                                 56
 Number of independent orbital functions:                                     56

 Extrapolation method: initial_guess

 *** WARNING in qs_initial_guess.F:309 :: User requested to restart the    ***
 *** wavefunction from the file named: cp2k-RESTART.wfn. This file does    ***
 *** not exist. Please check the existence of the file or change properly  ***
 *** the value of the keyword WFN_RESTART_FILE_NAME. Calculation continues ***
 *** using ATOMIC GUESS.                                                   ***



 SCF WAVEFUNCTION OPTIMIZATION

  ----------------------------------- OT ---------------------------------------
  Minimizer      : CG                  : conjugate gradient
  Preconditioner : FULL_ALL            : diagonalization, state selective
  Precond_solver : DEFAULT
  Line search    : 2PNT                : 2 energies, one gradient
  stepsize       :    0.15000000                  energy_gap     :    0.08000000
  eps_taylor     :   0.10000E-15                  max_taylor     :             4
  ----------------------------------- OT ---------------------------------------

  Step     Update method      Time    Convergence         Total energy    Change
  ------------------------------------------------------------------------------
     1 OT CG       0.15E+00    0.7     0.26070833       -13.3345250247 -1.33E+01
     2 OT LS       0.76E-01    0.1                      -13.3867788896
     3 OT CG       0.76E-01    0.3     0.13117939       -14.6624605069 -1.33E+00
     4 OT LS       0.53E-01    0.1                      -14.8094689682
     5 OT CG       0.53E-01    0.3     0.08612416       -14.8422132023 -1.80E-01
     6 OT LS       0.50E-01    0.1                      -14.9137756084
     7 OT CG       0.50E-01    0.3     0.04012390       -14.9141390920 -7.19E-02
     8 OT LS       0.86E-01    0.1                      -14.9365288051
     9 OT CG       0.86E-01    0.3     0.02150296       -14.9413209627 -2.72E-02
    10 OT LS       0.80E-01    0.1                      -14.9484372093
    11 OT CG       0.80E-01    0.3     0.01080361       -14.9484876729 -7.17E-03
    12 OT LS       0.57E-01    0.1                      -14.9495945702
    13 OT CG       0.57E-01    0.2     0.00591756       -14.9497931486 -1.31E-03
    14 OT LS       0.69E-01    0.1                      -14.9502535232
    15 OT CG       0.69E-01    0.3     0.00257200       -14.9502673860 -4.74E-04
    16 OT LS       0.80E-01    0.1                      -14.9503694598
    17 OT CG       0.80E-01    0.2     0.00117730       -14.9503715286 -1.04E-04
    18 OT LS       0.62E-01    0.1                      -14.9503869333
    19 OT CG       0.62E-01    0.3     0.00074548       -14.9503884017 -1.69E-05
    20 OT LS       0.75E-01    0.1                      -14.9503963125
    21 OT CG       0.75E-01    0.2     0.00038073       -14.9503965453 -8.14E-06
    22 OT LS       0.78E-01    0.2                      -14.9503987615
    23 OT CG       0.78E-01    0.3     0.00015554       -14.9503987657 -2.22E-06
    24 OT LS       0.70E-01    0.1                      -14.9503990926
    25 OT CG       0.70E-01    0.3     0.00010769       -14.9503990972 -3.32E-07
    26 OT LS       0.67E-01    0.1                      -14.9503992492
    27 OT CG       0.67E-01    0.3     0.00005199       -14.9503992495 -1.52E-07
    28 OT LS       0.88E-01    0.1                      -14.9503992933
    29 OT CG       0.88E-01    0.2     0.00002388       -14.9503992959 -4.64E-08
    30 OT LS       0.71E-01    0.1                      -14.9503993033
    31 OT CG       0.71E-01    0.3     0.00001563       -14.9503993038 -7.92E-09
    32 OT LS       0.61E-01    0.1                      -14.9503993066
    33 OT CG       0.61E-01    0.2     0.00000692       -14.9503993067 -2.92E-09
    34 OT LS       0.83E-01    0.1                      -14.9503993074
    35 OT CG       0.83E-01    0.3     0.00000336       -14.9503993075 -7.77E-10
    36 OT LS       0.74E-01    0.1                      -14.9503993076
    37 OT CG       0.74E-01    0.2     0.00000202       -14.9503993076 -1.64E-10
    38 OT LS       0.60E-01    0.1                      -14.9503993077
    39 OT CG       0.60E-01    0.3     0.00000105       -14.9503993077 -4.85E-11
    40 OT LS       0.76E-01    0.1                      -14.9503993077
    41 OT CG       0.76E-01    0.3     0.00000048       -14.9503993077 -1.65E-11

  *** SCF run converged in    41 steps ***


  Electronic density on regular grids:        -14.0000000000        0.0000000000
  Core density on regular grids:               13.9999999989       -0.0000000011
  Total charge density on r-space grids:       -0.0000000010
  Total charge density g-space grids:          -0.0000000010

  Overlap energy of the core charge distribution:               0.00000149241892
  Self energy of the core charge distribution:                -35.13285960674677
  Core Hamiltonian energy:                                     11.37118734031650
  Hartree energy:                                              14.45853689355066
  Exchange-correlation energy:                                 -5.64726542724812

  Total energy:                                               -14.95039930770881

  outer SCF iter =    1 RMS gradient =   0.48E-06 energy =        -14.9503993077
  outer SCF loop converged in   1 iterations or   41 steps


 ENERGY| Total FORCE_EVAL ( QS ) energy [a.u.]:              -14.950399307712281

 -------------------------------------------------------------------------------
 -                                                                             -
 -                                DBCSR STATISTICS                             -
 -                                                                             -
 -------------------------------------------------------------------------------
 COUNTER                                    TOTAL       BLAS       SMM       ACC
 flops     7 x     7 x     7               152978       0.0%    100.0%      0.0%
 flops     5 x    13 x     7               234780       0.0%    100.0%      0.0%
 flops    13 x     5 x     7               234780       0.0%    100.0%      0.0%
 flops     7 x     7 x    13               267540       0.0%    100.0%      0.0%
 flops    13 x    13 x     7               305214       0.0%    100.0%      0.0%
 flops     7 x     7 x     5               308700       0.0%    100.0%      0.0%
 flops     5 x     5 x     7               316050       0.0%    100.0%      0.0%
 flops    26 x     7 x     7               372008       0.0%    100.0%      0.0%
 flops    26 x     7 x    13               416416       0.0%    100.0%      0.0%
 flops    10 x     7 x     7               429240       0.0%    100.0%      0.0%
 flops    26 x     7 x     5               480480       0.0%    100.0%      0.0%
 flops    10 x     7 x    13               480480       0.0%    100.0%      0.0%
 flops    10 x     7 x     5               554400       0.0%    100.0%      0.0%
 flops    13 x     7 x    13               671944       0.0%    100.0%      0.0%
 flops    13 x     7 x     5               775320       0.0%    100.0%      0.0%
 flops     5 x     7 x    13               775320       0.0%    100.0%      0.0%
 flops     5 x     7 x     5               894600       0.0%    100.0%      0.0%
 flops inhomo. stacks                           0       0.0%      0.0%      0.0%
 flops total                         7.670250E+06       0.0%    100.0%      0.0%
 flops max/rank                      3.750600E+06       0.0%    100.0%      0.0%
 matmuls inhomo. stacks                         0       0.0%      0.0%      0.0%
 matmuls total                               9147       0.0%    100.0%      0.0%
 number of processed stacks                  6359       0.0%    100.0%      0.0%
 average stack size                                     0.0       1.4       0.0
 marketing flops                     8.472790E+06
 -------------------------------------------------------------------------------
 # multiplications                            633
 max memory usage/rank             178.606080E+06
 # max total images/rank                        3
 # max 3D layers                                1
 # MPI messages exchanged                  288648
 MPI messages size (bytes):
  total size                        22.380848E+06
  min size                           0.000000E+00
  max size                           2.704000E+03
  average size                      77.536819E+00
 MPI breakdown and total messages size (bytes):
             size <=      128              253992                        0
       128 < size <=     8192               34656                 22380848
      8192 < size <=    32768                   0                        0
     32768 < size <=   131072                   0                        0
    131072 < size <=  4194304                   0                        0
   4194304 < size <= 16777216                   0                        0
  16777216 < size                               0                        0
 -------------------------------------------------------------------------------

 *** WARNING in dbcsr_mm.F:294 :: Using a non-square number of MPI ranks ***
 *** might lead to poor performance. Used ranks: 24 Suggested: 25 49     ***

 -------------------------------------------------------------------------------
 -                                                                             -
 -                      DBCSR MESSAGE PASSING PERFORMANCE                      -
 -                                                                             -
 -------------------------------------------------------------------------------
 ROUTINE             CALLS      AVE VOLUME [Bytes]
 MP_Bcast               18                     12.
 MP_Allreduce         3244                      8.
 MP_Alltoall          2513                   1358.
 MP_ISend            26582                    161.
 MP_IRecv            26582                    108.
 -------------------------------------------------------------------------------

 -------------------------------------------------------------------------------
 -                                                                             -
 -                                GRID STATISTICS                              -
 -                                                                             -
 -------------------------------------------------------------------------------
 LP    KERNEL             BACKEND                              COUNT     PERCENT
 2     collocate ortho    REF                                  28560      38.50%
 3     collocate ortho    REF                                  15918      21.46%
 2     integrate ortho    REF                                  14280      19.25%
 3     integrate ortho    REF                                   7959      10.73%
 4     collocate ortho    REF                                   3948       5.32%
 4     integrate ortho    REF                                   1974       2.66%
 5     integrate ortho    REF                                    680       0.92%
 6     integrate ortho    REF                                    379       0.51%
 0     collocate general  REF                                    192       0.26%
 3     integrate general  REF                                    192       0.26%
 7     integrate ortho    REF                                     94       0.13%
 -------------------------------------------------------------------------------

 MEMORY| Estimated peak process memory [MiB]                                 171

 -------------------------------------------------------------------------------
 -                                                                             -
 -                         MESSAGE PASSING PERFORMANCE                         -
 -                                                                             -
 -------------------------------------------------------------------------------

 ROUTINE             CALLS      AVE VOLUME [Bytes]
 MP_Group                4
 MP_Bcast              757                 485879.
 MP_Allreduce         2235                    156.
 MP_Sync                92
 MP_Alltoall           612                2998307.
 MP_ISendRecv         4416                  53808.
 MP_Wait              6660
 MP_comm_split          44
 MP_ISend             1980                 171665.
 MP_IRecv             1980                 171402.
 MP_Recv                 9                    896.
 -------------------------------------------------------------------------------


 -------------------------------------------------------------------------------
 -                                                                             -
 -                           R E F E R E N C E S                               -
 -                                                                             -
 -------------------------------------------------------------------------------
 
 CP2K version 8.2, the CP2K developers group (2021).
 CP2K is freely available from https://www.cp2k.org/ .

 Kuehne,Thomas D.; Iannuzzi,Marcella; Del Ben,Mauro;
 Rybkin,Vladimir V.; Seewald,Patrick; Stein,Frederick; Laino,Teodoro;
 Khaliullin,Rustam Z.; Schuett,Ole; Schiffmann,Florian; Golze,Dorothea;
 Wilhelm,Jan; Chulkov,Sergey; Bani-Hashemian,Mohammad Hossein;
 Weber,Valery; Borstnik,Urban; Taillefumier,Mathieu;
 Jakobovits,Alice Shoshana; Lazzaro,Alfio; Pabst,Hans; Mueller,Tiziano;
 Schade,Robert; Guidon,Manuel; Andermatt,Samuel; Holmberg,Nico;
 Schenter,Gregory K.; Hehn,Anna; Bussy,Augustin; Belleflamme,Fabian;
 Tabacchi,Gloria; Gloess,Andreas; Lass,Michael; Bethune,Iain;
 Mundy,Christopher J.; Plessl,Christian; Watkins,Matt;
 VandeVondele,Joost; Krack,Matthias; Hutter,Juerg. 
 The Journal of Chemical Physics, 152 (19), (2020). 
 CP2K: An electronic structure and molecular dynamics software package -
 Quickstep: Efficient and accurate electronic structure calculations.
 https://doi.org/10.1063/5.0007045

 Schuett, Ole; Messmer, Peter; Hutter, Juerg; VandeVondele, Joost. 
 Electronic Structure Calculations on Graphics Processing Units, John
 Wiley & Sons, Ltd, 173-190 (2016). 
 GPU-Accelerated Sparse Matrix-Matrix Multiplication for
 Linear Scaling Density Functional Theory.
 https://doi.org/10.1002/9781118670712.ch8

 Heinecke, A; Henry, G; Hutchinson, M; Pabst, H. 
 Proceedings of Intl. Supercomputing Conference, 981-991 (2016). 
 LIBXSMM: Accelerating Small Matrix Multiplications
 by Runtime Code Generation.
 https://doi.org/10.1109/SC.2016.83

 Borstnik, U; VandeVondele, J; Weber, V; Hutter, J. 
 PARALLEL COMPUTING, 40 (5-6), 47-58 (2014). 
 Sparse matrix multiplication: The distributed block-compressed sparse
 row library.
 https://doi.org/10.1016/j.parco.2014.03.012

 Hutter, J; Iannuzzi, M; Schiffmann, F; VandeVondele, J. 
 WIREs Comput Mol Sci., 4 (1), 15-25 (2014). 
 CP2K: atomistic simulations of condensed matter systems.
 https://doi.org/10.1002/wcms.1159

 Marek, A; Blum, V; Johanni, R; Havu, V; Lang, B; Auckenthaler, T;
 Heinecke, A; Bungartz, H; Lederer, H. 
 Journal of Physics: Condensed Matter, 26 (21), (2014). 
 The ELPA library: scalable parallel eigenvalue solutions for
 electronic structure
 theory and computational science.
 https://doi.org/10.1088/0953-8984/26/21/213201

 VandeVondele, J; Hutter, J. 
 JOURNAL OF CHEMICAL PHYSICS, 127 (11), 114105 (2007). 
 Gaussian basis sets for accurate calculations on molecular systems in
 gas and condensed phases.
 https://doi.org/10.1063/1.2770708

 Krack, M. 
 THEORETICAL CHEMISTRY ACCOUNTS, 114 (1-3), 145-152 (2005). 
 Pseudopotentials for H to Kr optimized for gradient-corrected
 exchange-correlation functionals.
 https://doi.org/10.1007/s00214-005-0655-y

 VandeVondele, J; Krack, M; Mohamed, F; Parrinello, M; Chassaing, T;
 Hutter, J. COMPUTER PHYSICS COMMUNICATIONS, 167 (2), 103-128 (2005). 
 QUICKSTEP: Fast and accurate density functional calculations using a
 mixed Gaussian and plane waves approach.
 https://doi.org/10.1016/j.cpc.2004.12.014

 Frigo, M; Johnson, SG. 
 PROCEEDINGS OF THE IEEE, 93 (2), 216-231 (2005). 
 The design and implementation of FFTW3.
 https://doi.org/10.1109/JPROC.2004.840301

 VandeVondele, J; Hutter, J. 
 JOURNAL OF CHEMICAL PHYSICS, 118 (10), 4365-4369 (2003). 
 An efficient orbital transformation method for electronic structure
 calculations.
 https://doi.org/10.1063/1.1543154

 Hartwigsen, C; Goedecker, S; Hutter, J. 
 PHYSICAL REVIEW B, 58 (7), 3641-3662 (1998). 
 Relativistic separable dual-space Gaussian pseudopotentials from H to Rn.
 https://doi.org/10.1103/PhysRevB.58.3641

 Lippert, G; Hutter, J; Parrinello, M. 
 MOLECULAR PHYSICS, 92 (3), 477-487 (1997). 
 A hybrid Gaussian and plane wave density functional scheme.
 https://doi.org/10.1080/002689797170220

 Perdew, JP; Burke, K; Ernzerhof, M. 
 PHYSICAL REVIEW LETTERS, 77 (18), 3865-3868 (1996). 
 Generalized gradient approximation made simple.
 https://doi.org/10.1103/PhysRevLett.77.3865

 Goedecker, S; Teter, M; Hutter, J. 
 PHYSICAL REVIEW B, 54 (3), 1703-1710 (1996). 
 Separable dual-space Gaussian pseudopotentials.
 https://doi.org/10.1103/PhysRevB.54.1703


 -------------------------------------------------------------------------------
 -                                                                             -
 -                                T I M I N G                                  -
 -                                                                             -
 -------------------------------------------------------------------------------
 SUBROUTINE                       CALLS  ASD         SELF TIME        TOTAL TIME
                                MAXIMUM       AVERAGE  MAXIMUM  AVERAGE  MAXIMUM
 CP2K                                 1  1.0    0.021    0.032   17.264   17.266
 qs_forces                            1  2.0    0.000    0.000   12.946   12.947
 qs_energies                          1  3.0    0.001    0.013   12.759   12.760
 scf_env_do_scf                       1  4.0    0.000    0.000    8.716    8.717
 scf_env_do_scf_inner_loop           41  5.0    0.001    0.004    8.019    8.019
 rebuild_ks_matrix                   42  6.9    0.000    0.000    5.550    5.551
 qs_ks_build_kohn_sham_matrix        42  7.9    0.005    0.005    5.549    5.551
 qs_ks_update_qs_env                 42  6.0    0.000    0.000    5.395    5.396
 pw_transfer                        619 10.4    0.031    0.035    4.291    4.492
 fft_wrap_pw1pw2                    535 11.5    0.005    0.006    4.229    4.430
 fft_wrap_pw1pw2_200                343 12.7    0.250    0.279    4.032    4.239
 qs_vxc_create                       42  8.9    0.001    0.001    4.170    4.182
 fft3d_ps                           535 13.5    1.846    2.240    3.452    3.661
 init_scf_run                         1  4.0    0.000    0.000    3.488    3.488
 scf_env_initial_rho_setup            1  5.0    0.000    0.000    3.488    3.488
 calculate_first_density_matrix       1  6.0    0.000    0.001    3.144    3.167
 xc_rho_set_and_dset_create          42 10.9    0.020    0.021    2.763    3.097
 xc_vxc_pw_create                    22  9.9    0.040    0.048    2.697    2.708
 cp_dbcsr_sm_fm_multiply              5  8.0    0.000    0.000    2.535    2.546
 create_qs_kind_set                   1  2.0    0.000    0.000    2.540    2.541
 read_qs_kind                         2  3.0    0.019    0.020    2.540    2.541
 parser_read_line                  5424  4.0    0.002    0.002    2.521    2.524
 parser_read_line_low                 8  5.0    0.006    0.014    2.519    2.522
 broadcast_input_information          8  6.0    0.000    0.000    2.513    2.518
 mp_bcast_am                          8  7.0    1.216    2.505    1.243    2.505
 mp_bcast_i                         118  3.4    1.256    2.502    1.256    2.502
 qs_rho_update_rho                   42  6.0    0.000    0.000    2.489    2.492
 calculate_rho_elec                  42  7.0    0.023    0.026    2.489    2.492
 dbcsr_complete_redistribute        116 12.0    0.005    0.017    2.382    2.397
 density_rs2pw                       42  8.0    0.002    0.002    2.062    2.146
 copy_dbcsr_to_fm                    59 10.9    0.001    0.001    1.922    1.962
 mp_alltoall_z22v                   535 15.5    1.300    1.705    1.300    1.705
 mp_alltoall_d11v                   650 13.0    1.356    1.526    1.356    1.526
 xc_exc_calc                         20 10.0    0.009    0.011    1.473    1.473
 rs_pw_transfer                     258 10.0    0.004    0.004    1.412    1.469
 qs_init_subsys                       1  2.0    0.001    0.001    1.442    1.454
 qs_env_setup                         1  3.0    0.000    0.000    1.440    1.452
 xc_functional_eval                  42 11.9    0.000    0.000    1.121    1.448
 pbe_lda_eval                        42 12.9    1.121    1.448    1.121    1.448
 qs_env_rebuild_pw_env                3  3.7    0.000    0.000    1.363    1.387
 pw_env_rebuild                       1  5.0    0.001    0.006    1.363    1.387
 copy_fm_to_dbcsr                    57 11.1    0.000    0.000    1.126    1.150
 dbcsr_multiply_generic             633 10.9    0.018    0.031    1.067    1.142
 yz_to_x                            257 13.7    0.095    0.117    0.770    1.041
 x_to_yz                            278 15.1    0.203    0.255    0.828    0.930
 mp_alltoall_i11v                   467 13.1    0.894    0.901    0.894    0.901
 sum_up_and_integrate                22  8.9    0.005    0.006    0.878    0.879
 integrate_v_rspace                  22  9.9    0.000    0.001    0.873    0.874
 pw_grid_setup                        4  6.0    0.000    0.000    0.842    0.866
 pw_grid_setup_internal               4  7.0    0.001    0.001    0.842    0.866
 make_basis_sm                        1  7.0    0.000    0.000    0.845    0.859
 dbcsr_desymmetrize_deep             59 11.9    0.001    0.001    0.661    0.710
 qs_scf_new_mos                      41  6.0    0.000    0.000    0.699    0.700
 qs_scf_loop_do_ot                   41  7.0    0.000    0.000    0.699    0.700
 init_scf_loop                        1  5.0    0.001    0.010    0.697    0.697
 potential_pw2rs                     22 10.9    0.001    0.001    0.692    0.693
 rs_pw_transfer_RS2PW_200            43 10.0    0.273    0.314    0.634    0.687
 ot_scf_mini                         41  8.0    0.001    0.001    0.660    0.661
 mp_cart_sub                        120 12.9    0.593    0.606    0.593    0.606
 mp_sum_d                          1155  8.0    0.388    0.598    0.388    0.598
 mp_waitall_1                     40128 14.7    0.507    0.595    0.507    0.595
 qs_energies_init_hamiltonians        1  4.0    0.000    0.000    0.541    0.545
 mp_comm_dup                          8  6.5    0.448    0.545    0.448    0.545
 qs_env_update_s_mstruct              1  5.0    0.000    0.000    0.534    0.539
 grid_collocate_task_list            42  8.0    0.274    0.519    0.274    0.519
 mp_cart_create                      64 12.6    0.460    0.519    0.460    0.519
 mp_sum_l                          3291 11.2    0.484    0.517    0.484    0.517
 mp_waitany                        1980 11.9    0.402    0.496    0.402    0.496
 hybrid_alltoall_any               1325 14.8    0.007    0.009    0.388    0.481
 multiply_cannon                    633 11.9    0.036    0.039    0.356    0.420
 calculate_dm_sparse                 42  8.0    0.000    0.000    0.373    0.399
 cp_dbcsr_sm_fm_multiply_core         5  9.0    0.000    0.000    0.341    0.392
 make_m2s                          1266 11.9    0.014    0.016    0.354    0.391
 qs_create_task_list                  1  6.0    0.000    0.000    0.370    0.383
 generate_qs_task_list                1  7.0    0.000    0.000    0.370    0.383
 distribute_tasks                     1  8.0    0.001    0.013    0.369    0.381
 pw_grid_distribute                   4  8.0    0.001    0.001    0.319    0.374
 mp_alltoall_i22                    195 13.1    0.182    0.366    0.182    0.366
 cp_dbcsr_plus_fm_fm_t_native         2  7.0    0.000    0.000    0.336    0.363
 rs_grid_create_descriptor            4  6.0    0.000    0.000    0.331    0.349
 -------------------------------------------------------------------------------

 The number of warnings for this run is : 2
 
 -------------------------------------------------------------------------------
  **** **** ******  **  PROGRAM ENDED AT                 2021-10-27 16:18:48.491
 ***** ** ***  *** **   PROGRAM RAN ON                                     node2
 **    ****   ******    PROGRAM RAN BY                                   lujunbo
 ***** **    ** ** **   PROGRAM PROCESS ID                                713193
  **** **  *******  **  PROGRAM STOPPED IN /home/lujunbo/WORK/deepmd/c2h6/mtd/tr
                                           ain_4_sys/cp2k_md/sys_4/data/task_279
                                           5
