ITEM: TIMESTEP
0
ITEM: NUMBER OF ATOMS
3
ITEM: BOX BOUNDS xy xz yz pp pp pp
0.0000000000000000e+00 1.0000000000000000e+01 0.0000000000000000e+00
0.0000000000000000e+00 1.0000000000000000e+01 0.0000000000000000e+00
0.0000000000000000e+00 1.0000000000000000e+01 0.0000000000000000e+00
ITEM: ATOMS id type x y z fx fy fz
1 1 4.93373 5.00063 4.97853 1.88919 -0.974873 0.762994
2 2 5.53996 5.79528 5.04858 -0.622726 -1.19003 -0.012966
3 2 5.50986 4.1947 5.29149 -1.26646 2.16491 -0.750028
ITEM: TIMESTEP
1
ITEM: NUMBER OF ATOMS
3
ITEM: BOX BOUNDS xy xz yz pp pp pp
0.0000000000000000e+00 1.0000000000000000e+01 0.0000000000000000e+00
0.0000000000000000e+00 1.0000000000000000e+01 0.0000000000000000e+00
0.0000000000000000e+00 1.0000000000000000e+01 0.0000000000000000e+00
ITEM: ATOMS id type x y z fx fy fz
1 1 4.93359 5.00066 4.97882 1.9119 -1.00452 0.760846
2 2 5.53882 5.79598 5.0491 -0.618467 -1.18934 -0.0141119
3 2 5.51328 4.19364 5.28649 -1.29343 2.19386 -0.746734
ITEM: TIMESTEP
2
ITEM: NUMBER OF ATOMS
3
ITEM: BOX BOUNDS xy xz yz pp pp pp
0.0000000000000000e+00 1.0000000000000000e+01 0.0000000000000000e+00
0.0000000000000000e+00 1.0000000000000000e+01 0.0000000000000000e+00
0.0000000000000000e+00 1.0000000000000000e+01 0.0000000000000000e+00
ITEM: ATOMS id type x y z fx fy fz
1 1 4.93373 5.00053 4.97921 1.77284 -0.984953 0.70033
2 2 5.53621 5.79383 5.04958 -0.549034 -1.07796 -0.0113606
3 2 5.51362 4.19781 5.2797 -1.2238 2.06292 -0.68897
ITEM: TIMESTEP
3
ITEM: NUMBER OF ATOMS
3
ITEM: BOX BOUNDS xy xz yz pp pp pp
0.0000000000000000e+00 1.0000000000000000e+01 0.0000000000000000e+00
0.0000000000000000e+00 1.0000000000000000e+01 0.0000000000000000e+00
0.0000000000000000e+00 1.0000000000000000e+01 0.0000000000000000e+00
ITEM: ATOMS id type x y z fx fy fz
1 1 4.93414 5.00025 4.97972 1.46671 -0.902701 0.58084
2 2 5.53228 5.78911 5.05003 -0.417844 -0.860163 -0.00462246
3 2 5.51103 4.20691 5.27127 -1.04886 1.76286 -0.576218
ITEM: TIMESTEP
4
ITEM: NUMBER OF ATOMS
3
ITEM: BOX BOUNDS xy xz yz pp pp pp
0.0000000000000000e+00 1.0000000000000000e+01 0.0000000000000000e+00
0.0000000000000000e+00 1.0000000000000000e+01 0.0000000000000000e+00
0.0000000000000000e+00 1.0000000000000000e+01 0.0000000000000000e+00
ITEM: ATOMS id type x y z fx fy fz
1 1 4.93477 4.99984 4.98031 0.985874 -0.731421 0.399784
2 2 5.52736 5.78234 5.05047 -0.232084 -0.54638 0.0059195
3 2 5.50594 4.22022 5.26147 -0.75379 1.2778 -0.405703
ITEM: TIMESTEP
5
ITEM: NUMBER OF ATOMS
3
ITEM: BOX BOUNDS xy xz yz pp pp pp
0.0000000000000000e+00 1.0000000000000000e+01 0.0000000000000000e+00
0.0000000000000000e+00 1.0000000000000000e+01 0.0000000000000000e+00
0.0000000000000000e+00 1.0000000000000000e+01 0.0000000000000000e+00
ITEM: ATOMS id type x y z fx fy fz
1 1 4.93555 4.99932 4.98096 0.32617 -0.436152 0.155412
2 2 5.52188 5.77426 5.05093 -0.00427114 -0.155764 0.0196541
3 2 5.49905 4.23658 5.25069 -0.321899 0.591916 -0.175066
ITEM: TIMESTEP
6
ITEM: NUMBER OF ATOMS
3
ITEM: BOX BOUNDS xy xz yz pp pp pp
0.0000000000000000e+00 1.0000000000000000e+01 0.0000000000000000e+00
0.0000000000000000e+00 1.0000000000000000e+01 0.0000000000000000e+00
0.0000000000000000e+00 1.0000000000000000e+01 0.0000000000000000e+00
ITEM: ATOMS id type x y z fx fy fz
1 1 4.93638 4.99873 4.98163 -0.499102 0.0144532 -0.147243
2 2 5.5164 5.76581 5.05143 0.245122 0.279726 0.0352438
3 2 5.49139 4.25435 5.2395 0.253979 -0.294179 0.111999
ITEM: TIMESTEP
7
ITEM: NUMBER OF ATOMS
3
ITEM: BOX BOUNDS xy xz yz pp pp pp
0.0000000000000000e+00 1.0000000000000000e+01 0.0000000000000000e+00
0.0000000000000000e+00 1.0000000000000000e+01 0.0000000000000000e+00
0.0000000000000000e+00 1.0000000000000000e+01 0.0000000000000000e+00
ITEM: ATOMS id type x y z fx fy fz
1 1 4.93714 4.99814 4.98229 -1.40993 0.589457 -0.47554
2 2 5.5115 5.75804 5.05202 0.48523 0.7096 0.0505274
3 2 5.48435 4.2714 5.22859 0.924696 -1.29906 0.425013
ITEM: TIMESTEP
8
ITEM: NUMBER OF ATOMS
3
ITEM: BOX BOUNDS xy xz yz pp pp pp
0.0000000000000000e+00 1.0000000000000000e+01 0.0000000000000000e+00
0.0000000000000000e+00 1.0000000000000000e+01 0.0000000000000000e+00
0.0000000000000000e+00 1.0000000000000000e+01 0.0000000000000000e+00
ITEM: ATOMS id type x y z fx fy fz
1 1 4.93768 4.99764 4.98287 -2.22156 1.14385 -0.756312
2 2 5.50777 5.75196 5.05273 0.676895 1.06552 0.0628122
3 2 5.47952 4.28534 5.2187 1.54466 -2.20937 0.693499
ITEM: TIMESTEP
9
ITEM: NUMBER OF ATOMS
3
ITEM: BOX BOUNDS xy xz yz pp pp pp
0.0000000000000000e+00 1.0000000000000000e+01 0.0000000000000000e+00
0.0000000000000000e+00 1.0000000000000000e+01 0.0000000000000000e+00
0.0000000000000000e+00 1.0000000000000000e+01 0.0000000000000000e+00
ITEM: ATOMS id type x y z fx fy fz
1 1 4.93788 4.99732 4.98333 -2.71979 1.49768 -0.912318
2 2 5.50565 5.74844 5.05359 0.78266 1.27997 0.0692094
3 2 5.47837 4.29399 5.21047 1.93713 -2.77765 0.843108
ITEM: TIMESTEP
10
ITEM: NUMBER OF ATOMS
3
ITEM: BOX BOUNDS xy xz yz pp pp pp
0.0000000000000000e+00 1.0000000000000000e+01 0.0000000000000000e+00
0.0000000000000000e+00 1.0000000000000000e+01 0.0000000000000000e+00
0.0000000000000000e+00 1.0000000000000000e+01 0.0000000000000000e+00
ITEM: ATOMS id type x y z fx fy fz
1 1 4.93768 4.99722 4.98366 -2.7647 1.53947 -0.903513
2 2 5.50541 5.74797 5.05461 0.779477 1.31067 0.0673447
3 2 5.48186 4.296 5.20427 1.98522 -2.85014 0.836168
ITEM: TIMESTEP
11
ITEM: NUMBER OF ATOMS
3
ITEM: BOX BOUNDS xy xz yz pp pp pp
0.0000000000000000e+00 1.0000000000000000e+01 0.0000000000000000e+00
0.0000000000000000e+00 1.0000000000000000e+01 0.0000000000000000e+00
0.0000000000000000e+00 1.0000000000000000e+01 0.0000000000000000e+00
ITEM: ATOMS id type x y z fx fy fz
1 1 4.93706 4.99736 4.98385 -2.33501 1.25867 -0.737379
2 2 5.50702 5.75064 5.05579 0.666237 1.15309 0.0563161
3 2 5.49008 4.29121 5.20006 1.66877 -2.41176 0.681063
ITEM: TIMESTEP
12
ITEM: NUMBER OF ATOMS
3
ITEM: BOX BOUNDS xy xz yz pp pp pp
0.0000000000000000e+00 1.0000000000000000e+01 0.0000000000000000e+00
0.0000000000000000e+00 1.0000000000000000e+01 0.0000000000000000e+00
0.0000000000000000e+00 1.0000000000000000e+01 0.0000000000000000e+00
ITEM: ATOMS id type x y z fx fy fz
1 1 4.93609 4.99768 4.98393 -1.53506 0.746006 -0.463372
2 2 5.51023 5.75605 5.0571 0.464268 0.84134 0.0371503
3 2 5.50227 4.28067 5.19749 1.07079 -1.58735 0.426222
ITEM: TIMESTEP
13
ITEM: NUMBER OF ATOMS
3
ITEM: BOX BOUNDS xy xz yz pp pp pp
0.0000000000000000e+00 1.0000000000000000e+01 0.0000000000000000e+00
0.0000000000000000e+00 1.0000000000000000e+01 0.0000000000000000e+00
0.0000000000000000e+00 1.0000000000000000e+01 0.0000000000000000e+00
ITEM: ATOMS id type x y z fx fy fz
1 1 4.93488 4.99812 4.98394 -0.568767 0.171068 -0.157426
2 2 5.51454 5.76347 5.0585 0.210765 0.438572 0.0124632
3 2 5.51701 4.26634 5.19594 0.358002 -0.60964 0.144963
ITEM: TIMESTEP
14
ITEM: NUMBER OF ATOMS
3
ITEM: BOX BOUNDS xy xz yz pp pp pp
0.0000000000000000e+00 1.0000000000000000e+01 0.0000000000000000e+00
0.0000000000000000e+00 1.0000000000000000e+01 0.0000000000000000e+00
0.0000000000000000e+00 1.0000000000000000e+01 0.0000000000000000e+00
ITEM: ATOMS id type x y z fx fy fz
1 1 4.9336 4.99858 4.98392 0.352551 -0.30397 0.11229
2 2 5.51935 5.77192 5.05993 -0.0537827 0.0144068 -0.0143658
3 2 5.53259 4.25059 5.19473 -0.298768 0.289564 -0.0979245
ITEM: TIMESTEP
15
ITEM: NUMBER OF ATOMS
3
ITEM: BOX BOUNDS xy xz yz pp pp pp
0.0000000000000000e+00 1.0000000000000000e+01 0.0000000000000000e+00
0.0000000000000000e+00 1.0000000000000000e+01 0.0000000000000000e+00
0.0000000000000000e+00 1.0000000000000000e+01 0.0000000000000000e+00
ITEM: ATOMS id type x y z fx fy fz
1 1 4.93236 4.99899 4.98393 1.11465 -0.623649 0.317262
2 2 5.52402 5.78039 5.06132 -0.296845 -0.376863 -0.0400738
3 2 5.54742 4.23554 5.19329 -0.817803 1.00051 -0.277188
ITEM: TIMESTEP
16
ITEM: NUMBER OF ATOMS
3
ITEM: BOX BOUNDS xy xz yz pp pp pp
0.0000000000000000e+00 1.0000000000000000e+01 0.0000000000000000e+00
0.0000000000000000e+00 1.0000000000000000e+01 0.0000000000000000e+00
0.0000000000000000e+00 1.0000000000000000e+01 0.0000000000000000e+00
ITEM: ATOMS id type x y z fx fy fz
1 1 4.9313 4.99931 4.98398 1.68965 -0.813006 0.458253
2 2 5.52798 5.78796 5.06262 -0.497028 -0.700096 -0.0621714
3 2 5.56028 4.22291 5.1912 -1.19263 1.5131 -0.396082
ITEM: TIMESTEP
17
ITEM: NUMBER OF ATOMS
3
ITEM: BOX BOUNDS xy xz yz pp pp pp
0.0000000000000000e+00 1.0000000000000000e+01 0.0000000000000000e+00
0.0000000000000000e+00 1.0000000000000000e+01 0.0000000000000000e+00
0.0000000000000000e+00 1.0000000000000000e+01 0.0000000000000000e+00
ITEM: ATOMS id type x y z fx fy fz
1 1 4.9305 4.99951 4.9841 2.07777 -0.909018 0.54284
2 2 5.53074 5.79383 5.06376 -0.641689 -0.933579 -0.0790064
3 2 5.57028 4.21391 5.18816 -1.43608 1.8426 -0.463834
ITEM: TIMESTEP
18
ITEM: NUMBER OF ATOMS
3
ITEM: BOX BOUNDS xy xz yz pp pp pp
0.0000000000000000e+00 1.0000000000000000e+01 0.0000000000000000e+00
0.0000000000000000e+00 1.0000000000000000e+01 0.0000000000000000e+00
0.0000000000000000e+00 1.0000000000000000e+01 0.0000000000000000e+00
ITEM: ATOMS id type x y z fx fy fz
1 1 4.93001 4.99957 4.9843 2.28563 -0.941112 0.578434
2 2 5.53197 5.79747 5.06472 -0.723943 -1.06469 -0.0894883
3 2 5.57682 4.20933 5.18402 -1.56169 2.0058 -0.488946
ITEM: TIMESTEP
19
ITEM: NUMBER OF ATOMS
3
ITEM: BOX BOUNDS xy xz yz pp pp pp
0.0000000000000000e+00 1.0000000000000000e+01 0.0000000000000000e+00
0.0000000000000000e+00 1.0000000000000000e+01 0.0000000000000000e+00
0.0000000000000000e+00 1.0000000000000000e+01 0.0000000000000000e+00
ITEM: ATOMS id type x y z fx fy fz
1 1 4.92986 4.99949 4.98459 2.31914 -0.927138 0.570659
2 2 5.53146 5.79856 5.06546 -0.740838 -1.08742 -0.0929062
3 2 5.57963 4.20953 5.17872 -1.57831 2.01456 -0.477753
ITEM: TIMESTEP
20
ITEM: NUMBER OF ATOMS
3
ITEM: BOX BOUNDS xy xz yz pp pp pp
0.0000000000000000e+00 1.0000000000000000e+01 0.0000000000000000e+00
0.0000000000000000e+00 1.0000000000000000e+01 0.0000000000000000e+00
0.0000000000000000e+00 1.0000000000000000e+01 0.0000000000000000e+00
ITEM: ATOMS id type x y z fx fy fz
1 1 4.93007 4.99927 4.98496 2.17811 -0.869426 0.52238
2 2 5.52919 5.79706 5.06597 -0.692424 -1.00093 -0.0888577
3 2 5.57867 4.21455 5.1723 -1.48568 1.87035 -0.433522
ITEM: TIMESTEP
21
ITEM: NUMBER OF ATOMS
3
ITEM: BOX BOUNDS xy xz yz pp pp pp
0.0000000000000000e+00 1.0000000000000000e+01 0.0000000000000000e+00
0.0000000000000000e+00 1.0000000000000000e+01 0.0000000000000000e+00
0.0000000000000000e+00 1.0000000000000000e+01 0.0000000000000000e+00
ITEM: ATOMS id type x y z fx fy fz
1 1 4.9306 4.99891 4.98541 1.85547 -0.754857 0.434141
2 2 5.52527 5.79317 5.06627 -0.581486 -0.809169 -0.0772392
3 2 5.57416 4.22402 5.16485 -1.27398 1.56403 -0.356902
ITEM: TIMESTEP
22
ITEM: NUMBER OF ATOMS
3
ITEM: BOX BOUNDS xy xz yz pp pp pp
0.0000000000000000e+00 1.0000000000000000e+01 0.0000000000000000e+00
0.0000000000000000e+00 1.0000000000000000e+01 0.0000000000000000e+00
0.0000000000000000e+00 1.0000000000000000e+01 0.0000000000000000e+00
ITEM: ATOMS id type x y z fx fy fz
1 1 4.93141 4.99845 4.98593 1.34153 -0.559381 0.305901
2 2 5.51998 5.78735 5.06639 -0.413882 -0.52166 -0.0583021
3 2 5.56662 4.2372 5.15656 -0.927652 1.08104 -0.247599
ITEM: TIMESTEP
23
ITEM: NUMBER OF ATOMS
3
ITEM: BOX BOUNDS xy xz yz pp pp pp
0.0000000000000000e+00 1.0000000000000000e+01 0.0000000000000000e+00
0.0000000000000000e+00 1.0000000000000000e+01 0.0000000000000000e+00
0.0000000000000000e+00 1.0000000000000000e+01 0.0000000000000000e+00
ITEM: ATOMS id type x y z fx fy fz
1 1 4.93242 4.9979 4.98649 0.630239 -0.253037 0.138984
2 2 5.5137 5.78031 5.06637 -0.199555 -0.155095 -0.0328212
3 2 5.55689 4.25293 5.1477 -0.430684 0.408132 -0.106163
ITEM: TIMESTEP
24
ITEM: NUMBER OF ATOMS
3
ITEM: BOX BOUNDS xy xz yz pp pp pp
0.0000000000000000e+00 1.0000000000000000e+01 0.0000000000000000e+00
0.0000000000000000e+00 1.0000000000000000e+01 0.0000000000000000e+00
0.0000000000000000e+00 1.0000000000000000e+01 0.0000000000000000e+00
ITEM: ATOMS id type x y z fx fy fz
1 1 4.93352 4.99732 4.98707 -0.26444 0.186194 -0.0599123
2 2 5.50697 5.77291 5.06627 0.0452686 0.263298 -0.0024383
3 2 5.54615 4.2696 5.13861 0.219172 -0.449491 0.0623506
ITEM: TIMESTEP
25
ITEM: NUMBER OF ATOMS
3
ITEM: BOX BOUNDS xy xz yz pp pp pp
0.0000000000000000e+00 1.0000000000000000e+01 0.0000000000000000e+00
0.0000000000000000e+00 1.0000000000000000e+01 0.0000000000000000e+00
0.0000000000000000e+00 1.0000000000000000e+01 0.0000000000000000e+00
ITEM: ATOMS id type x y z fx fy fz
1 1 4.93458 4.99676 4.98764 -1.25349 0.716293 -0.266712
2 2 5.50036 5.76615 5.06616 0.294866 0.688801 0.0298996
3 2 5.53596 4.28516 5.12969 0.958621 -1.40509 0.236812
ITEM: TIMESTEP
26
ITEM: NUMBER OF ATOMS
3
ITEM: BOX BOUNDS xy xz yz pp pp pp
0.0000000000000000e+00 1.0000000000000000e+01 0.0000000000000000e+00
0.0000000000000000e+00 1.0000000000000000e+01 0.0000000000000000e+00
0.0000000000000000e+00 1.0000000000000000e+01 0.0000000000000000e+00
ITEM: ATOMS id type x y z fx fy fz
1 1 4.93545 4.99631 4.98817 -2.13786 1.19345 -0.43602
2 2 5.49447 5.76106 5.06613 0.513447 1.0563 0.0597596
3 2 5.52809 4.29732 5.12136 1.62441 -2.24975 0.37626
ITEM: TIMESTEP
27
ITEM: NUMBER OF ATOMS
3
ITEM: BOX BOUNDS xy xz yz pp pp pp
0.0000000000000000e+00 1.0000000000000000e+01 0.0000000000000000e+00
0.0000000000000000e+00 1.0000000000000000e+01 0.0000000000000000e+00
0.0000000000000000e+00 1.0000000000000000e+01 0.0000000000000000e+00
ITEM: ATOMS id type x y z fx fy fz
1 1 4.936 4.99605 4.98863 -2.69406 1.45543 -0.525097
2 2 5.48982 5.7585 5.06624 0.662674 1.29581 0.0819058
3 2 5.52411 4.30409 5.11395 2.03138 -2.75123 0.443191
ITEM: TIMESTEP
28
ITEM: NUMBER OF ATOMS
3
ITEM: BOX BOUNDS xy xz yz pp pp pp
0.0000000000000000e+00 1.0000000000000000e+01 0.0000000000000000e+00
0.0000000000000000e+00 1.0000000000000000e+01 0.0000000000000000e+00
0.0000000000000000e+00 1.0000000000000000e+01 0.0000000000000000e+00
ITEM: ATOMS id type x y z fx fy fz
1 1 4.93613 4.996 4.98901 -2.78093 1.41375 -0.516275
2 2 5.48677 5.75904 5.06654 0.714422 1.35689 0.0919102
3 2 5.52498 4.30427 5.10761 2.06651 -2.77064 0.424365
ITEM: TIMESTEP
29
ITEM: NUMBER OF ATOMS
3
ITEM: BOX BOUNDS xy xz yz pp pp pp
0.0000000000000000e+00 1.0000000000000000e+01 0.0000000000000000e+00
0.0000000000000000e+00 1.0000000000000000e+01 0.0000000000000000e+00
0.0000000000000000e+00 1.0000000000000000e+01 0.0000000000000000e+00
ITEM: ATOMS id type x y z fx fy fz
1 1 4.93585 4.99617 4.98931 -2.38249 1.07757 -0.420104
2 2 5.48542 5.76281 5.06706 0.660169 1.22437 0.0876753
3 2 5.53078 4.29785 5.10231 1.72232 -2.30194 0.332429
ITEM: TIMESTEP
30
ITEM: NUMBER OF ATOMS
3
ITEM: BOX BOUNDS xy xz yz pp pp pp
0.0000000000000000e+00 1.0000000000000000e+01 0.0000000000000000e+00
0.0000000000000000e+00 1.0000000000000000e+01 0.0000000000000000e+00
0.0000000000000000e+00 1.0000000000000000e+01 0.0000000000000000e+00
ITEM: ATOMS id type x y z fx fy fz
1 1 4.93521 4.9965 4.98955 -1.61155 0.549044 -0.269084
2 2 5.48566 5.7695 5.06779 0.513543 0.923282 0.0701233
3 2 5.54068 4.28595 5.09782 1.09801 -1.47233 0.198961
ITEM: TIMESTEP
31
ITEM: NUMBER OF ATOMS
3
ITEM: BOX BOUNDS xy xz yz pp pp pp
0.0000000000000000e+00 1.0000000000000000e+01 0.0000000000000000e+00
0.0000000000000000e+00 1.0000000000000000e+01 0.0000000000000000e+00
0.0000000000000000e+00 1.0000000000000000e+01 0.0000000000000000e+00
ITEM: ATOMS id type x y z fx fy fz
1 1 4.93433 4.99691 4.98974 -0.677608 -0.0046381 -0.10611
2 2 5.48712 5.77836 5.06869 0.305874 0.512519 0.042896
3 2 5.55316 4.27058 5.09381 0.371733 -0.507881 0.0632144
ITEM: TIMESTEP
32
ITEM: NUMBER OF ATOMS
3
ITEM: BOX BOUNDS xy xz yz pp pp pp
0.0000000000000000e+00 1.0000000000000000e+01 0.0000000000000000e+00
0.0000000000000000e+00 1.0000000000000000e+01 0.0000000000000000e+00
0.0000000000000000e+00 1.0000000000000000e+01 0.0000000000000000e+00
ITEM: ATOMS id type x y z fx fy fz
1 1 4.93335 4.99732 4.98992 0.210265 -0.437552 0.0342924
2 2 5.48931 5.78842 5.06968 0.0754896 0.0636976 0.0110746
3 2 5.56649 4.25405 5.08996 -0.285754 0.373855 -0.0453671
ITEM: TIMESTEP
33
ITEM: NUMBER OF ATOMS
3
ITEM: BOX BOUNDS xy xz yz pp pp pp
0.0000000000000000e+00 1.0000000000000000e+01 0.0000000000000000e+00
0.0000000000000000e+00 1.0000000000000000e+01 0.0000000000000000e+00
0.0000000000000000e+00 1.0000000000000000e+01 0.0000000000000000e+00
ITEM: ATOMS id type x y z fx fy fz
1 1 4.93241 4.99766 4.99011 0.94187 -0.70965 0.139059
2 2 5.49166 5.7986 5.0707 -0.143878 -0.362389 -0.0204796
3 2 5.57909 4.23846 5.08602 -0.797992 1.07204 -0.118579
ITEM: TIMESTEP
34
ITEM: NUMBER OF ATOMS
3
ITEM: BOX BOUNDS xy xz yz pp pp pp
0.0000000000000000e+00 1.0000000000000000e+01 0.0000000000000000e+00
0.0000000000000000e+00 1.0000000000000000e+01 0.0000000000000000e+00
0.0000000000000000e+00 1.0000000000000000e+01 0.0000000000000000e+00
ITEM: ATOMS id type x y z fx fy fz
1 1 4.93161 4.99789 4.99031 1.49001 -0.852553 0.209117
2 2 5.49367 5.80787 5.07166 -0.328775 -0.723956 -0.0481297
3 2 5.58975 4.22548 5.08182 -1.16124 1.57651 -0.160987
ITEM: TIMESTEP
35
ITEM: NUMBER OF ATOMS
3
ITEM: BOX BOUNDS xy xz yz pp pp pp
0.0000000000000000e+00 1.0000000000000000e+01 0.0000000000000000e+00
0.0000000000000000e+00 1.0000000000000000e+01 0.0000000000000000e+00
0.0000000000000000e+00 1.0000000000000000e+01 0.0000000000000000e+00
ITEM: ATOMS id type x y z fx fy fz
1 1 4.93104 4.998 4.99055 1.85464 -0.905377 0.248619
2 2 5.49488 5.81539 5.07251 -0.465297 -0.995144 -0.0695048
3 2 5.5976 4.21631 5.07724 -1.38934 1.90052 -0.179114
ITEM: TIMESTEP
36
ITEM: NUMBER OF ATOMS
3
ITEM: BOX BOUNDS xy xz yz pp pp pp
0.0000000000000000e+00 1.0000000000000000e+01 0.0000000000000000e+00
0.0000000000000000e+00 1.0000000000000000e+01 0.0000000000000000e+00
0.0000000000000000e+00 1.0000000000000000e+01 0.0000000000000000e+00
ITEM: ATOMS id type x y z fx fy fz
1 1 4.93075 4.99797 4.99082 2.04192 -0.897466 0.261701
2 2 5.49499 5.82051 5.07318 -0.546096 -1.16135 -0.0831451
3 2 5.6021 4.2117 5.07225 -1.49582 2.05881 -0.178556
ITEM: TIMESTEP
37
ITEM: NUMBER OF ATOMS
3
ITEM: BOX BOUNDS xy xz yz pp pp pp
0.0000000000000000e+00 1.0000000000000000e+01 0.0000000000000000e+00
0.0000000000000000e+00 1.0000000000000000e+01 0.0000000000000000e+00
0.0000000000000000e+00 1.0000000000000000e+01 0.0000000000000000e+00
ITEM: ATOMS id type x y z fx fy fz
1 1 4.93076 4.9978 4.99113 2.05695 -0.845471 0.251794
2 2 5.49378 5.82284 5.07366 -0.568108 -1.21568 -0.0882136
3 2 5.60303 4.21202 5.06686 -1.48884 2.06115 -0.16358
ITEM: TIMESTEP
38
ITEM: NUMBER OF ATOMS
3
ITEM: BOX BOUNDS xy xz yz pp pp pp
0.0000000000000000e+00 1.0000000000000000e+01 0.0000000000000000e+00
0.0000000000000000e+00 1.0000000000000000e+01 0.0000000000000000e+00
0.0000000000000000e+00 1.0000000000000000e+01 0.0000000000000000e+00
ITEM: ATOMS id type x y z fx fy fz
1 1 4.93109 4.99751 4.99148 1.89887 -0.750954 0.221449
2 2 5.49123 5.82226 5.07393 -0.531271 -1.15675 -0.0843281
3 2 5.6004 4.21725 5.0611 -1.3676 1.90771 -0.137121
ITEM: TIMESTEP
39
ITEM: NUMBER OF ATOMS
3
ITEM: BOX BOUNDS xy xz yz pp pp pp
0.0000000000000000e+00 1.0000000000000000e+01 0.0000000000000000e+00
0.0000000000000000e+00 1.0000000000000000e+01 0.0000000000000000e+00
0.0000000000000000e+00 1.0000000000000000e+01 0.0000000000000000e+00
ITEM: ATOMS id type x y z fx fy fz
1 1 4.9317 4.9971 4.99186 1.56067 -0.601894 0.172818
2 2 5.48743 5.81893 5.07399 -0.43792 -0.987647 -0.0714802
3 2 5.59452 4.22701 5.05503 -1.12275 1.58954 -0.101338
ITEM: TIMESTEP
40
ITEM: NUMBER OF ATOMS
3
ITEM: BOX BOUNDS xy xz yz pp pp pp
0.0000000000000000e+00 1.0000000000000000e+01 0.0000000000000000e+00
0.0000000000000000e+00 1.0000000000000000e+01 0.0000000000000000e+00
0.0000000000000000e+00 1.0000000000000000e+01 0.0000000000000000e+00
ITEM: ATOMS id type x y z fx fy fz
1 1 4.93255 4.99661 4.99226 1.0336 -0.378022 0.10852
2 2 5.48259 5.81325 5.07388 -0.292752 -0.716134 -0.0500426
3 2 5.58599 4.24052 5.04874 -0.740849 1.09416 -0.0584773
ITEM: TIMESTEP
41
ITEM: NUMBER OF ATOMS
3
ITEM: BOX BOUNDS xy xz yz pp pp pp
0.0000000000000000e+00 1.0000000000000000e+01 0.0000000000000000e+00
0.0000000000000000e+00 1.0000000000000000e+01 0.0000000000000000e+00
0.0000000000000000e+00 1.0000000000000000e+01 0.0000000000000000e+00
ITEM: ATOMS id type x y z fx fy fz
1 1 4.93354 4.99606 4.99268 0.313541 -0.0568912 0.0324958
2 2 5.47707 5.80589 5.07365 -0.103408 -0.35587 -0.0208795
3 2 5.57573 4.25659 5.04234 -0.210133 0.412762 -0.0116163
ITEM: TIMESTEP
42
ITEM: NUMBER OF ATOMS
3
ITEM: BOX BOUNDS xy xz yz pp pp pp
0.0000000000000000e+00 1.0000000000000000e+01 0.0000000000000000e+00
0.0000000000000000e+00 1.0000000000000000e+01 0.0000000000000000e+00
0.0000000000000000e+00 1.0000000000000000e+01 0.0000000000000000e+00
ITEM: ATOMS id type x y z fx fy fz
1 1 4.93458 4.9955 4.9931 -0.578646 0.3677 -0.048435
2 2 5.47133 5.79772 5.07338 0.117693 0.0699472 0.0143264
3 2 5.56501 4.27357 5.03593 0.460953 -0.437647 0.0341086
ITEM: TIMESTEP
43
ITEM: NUMBER OF ATOMS
3
ITEM: BOX BOUNDS xy xz yz pp pp pp
0.0000000000000000e+00 1.0000000000000000e+01 0.0000000000000000e+00
0.0000000000000000e+00 1.0000000000000000e+01 0.0000000000000000e+00
0.0000000000000000e+00 1.0000000000000000e+01 0.0000000000000000e+00
ITEM: ATOMS id type x y z fx fy fz
1 1 4.93553 4.995 4.99351 -1.54177 0.833305 -0.121955
2 2 5.4659 5.78974 5.07314 0.349727 0.520011 0.0523639
3 2 5.55543 4.28944 5.02964 1.19205 -1.35332 0.0695912
ITEM: TIMESTEP
44
ITEM: NUMBER OF ATOMS
3
ITEM: BOX BOUNDS xy xz yz pp pp pp
0.0000000000000000e+00 1.0000000000000000e+01 0.0000000000000000e+00
0.0000000000000000e+00 1.0000000000000000e+01 0.0000000000000000e+00
0.0000000000000000e+00 1.0000000000000000e+01 0.0000000000000000e+00
ITEM: ATOMS id type x y z fx fy fz
1 1 4.93624 4.99463 4.9939 -2.37518 1.1968 -0.172784
2 2 5.46132 5.78304 5.07302 0.560958 0.92971 0.0879214
3 2 5.54873 4.30201 5.02354 1.81422 -2.12651 0.0848624
ITEM: TIMESTEP
45
ITEM: NUMBER OF ATOMS
3
ITEM: BOX BOUNDS xy xz yz pp pp pp
0.0000000000000000e+00 1.0000000000000000e+01 0.0000000000000000e+00
0.0000000000000000e+00 1.0000000000000000e+01 0.0000000000000000e+00
0.0000000000000000e+00 1.0000000000000000e+01 0.0000000000000000e+00
ITEM: ATOMS id type x y z fx fy fz
1 1 4.93659 4.99444 4.99427 -2.86739 1.32425 -0.191481
2 2 5.4581 5.77859 5.07312 0.713679 1.2244 0.114402
3 2 5.54639 4.30946 5.01767 2.15371 -2.54865 0.0770792
ITEM: TIMESTEP
46
ITEM: NUMBER OF ATOMS
3
ITEM: BOX BOUNDS xy xz yz pp pp pp
0.0000000000000000e+00 1.0000000000000000e+01 0.0000000000000000e+00
0.0000000000000000e+00 1.0000000000000000e+01 0.0000000000000000e+00
0.0000000000000000e+00 1.0000000000000000e+01 0.0000000000000000e+00
ITEM: ATOMS id type x y z fx fy fz
1 1 4.93651 4.99445 4.9946 -2.89055 1.16509 -0.179015
2 2 5.4566 5.77707 5.07349 0.776013 1.34411 0.125995
3 2 5.54919 4.3108 5.01201 2.11454 -2.5092 0.0530198
ITEM: TIMESTEP
47
ITEM: NUMBER OF ATOMS
3
ITEM: BOX BOUNDS xy xz yz pp pp pp
0.0000000000000000e+00 1.0000000000000000e+01 0.0000000000000000e+00
0.0000000000000000e+00 1.0000000000000000e+01 0.0000000000000000e+00
0.0000000000000000e+00 1.0000000000000000e+01 0.0000000000000000e+00
ITEM: ATOMS id type x y z fx fy fz
1 1 4.93599 4.99464 4.99491 -2.43857 0.762423 -0.144607
2 2 5.45695 5.77876 5.07415 0.732751 1.26289 0.119627
3 2 5.55702 4.30616 5.0065 1.70582 -2.02531 0.02498
ITEM: TIMESTEP
48
ITEM: NUMBER OF ATOMS
3
ITEM: BOX BOUNDS xy xz yz pp pp pp
0.0000000000000000e+00 1.0000000000000000e+01 0.0000000000000000e+00
0.0000000000000000e+00 1.0000000000000000e+01 0.0000000000000000e+00
0.0000000000000000e+00 1.0000000000000000e+01 0.0000000000000000e+00
ITEM: ATOMS id type x y z fx fy fz
1 1 4.93511 4.99494 4.99519 -1.63004 0.237454 -0.100762
2 2 5.45905 5.78346 5.0751 0.590601 0.997747 0.0960602
3 2 5.56887 4.29671 5.00107 1.03944 -1.2352 0.00470156
ITEM: TIMESTEP
49
ITEM: NUMBER OF ATOMS
3
ITEM: BOX BOUNDS xy xz yz pp pp pp
0.0000000000000000e+00 1.0000000000000000e+01 0.0000000000000000e+00
0.0000000000000000e+00 1.0000000000000000e+01 0.0000000000000000e+00
0.0000000000000000e+00 1.0000000000000000e+01 0.0000000000000000e+00
ITEM: ATOMS id type x y z fx fy fz
1 1 4.93399 4.99527 4.99546 -0.671756 -0.250449 -0.0581012
2 2 5.46254 5.79051 5.07627 0.376611 0.604515 0.0598067
3 2 5.58315 4.28436 4.99569 0.295145 -0.354066 -0.00170554
ITEM: TIMESTEP
50
ITEM: NUMBER OF ATOMS
3
ITEM: BOX BOUNDS xy xz yz pp pp pp
0.0000000000000000e+00 1.0000000000000000e+01 0.0000000000000000e+00
0.0000000000000000e+00 1.0000000000000000e+01 0.0000000000000000e+00
0.0000000000000000e+00 1.0000000000000000e+01 0.0000000000000000e+00
ITEM: ATOMS id type x y z fx fy fz
1 1 4.93277 4.99557 4.99571 0.239205 -0.588121 -0.0223334
2 2 5.46691 5.79896 5.07758 0.129187 0.157385 0.0175027
3 2 5.59806 4.27123 4.99032 -0.368393 0.430736 0.00483063
ITEM: TIMESTEP
51
ITEM: NUMBER OF ATOMS
3
ITEM: BOX BOUNDS xy xz yz pp pp pp
0.0000000000000000e+00 1.0000000000000000e+01 0.0000000000000000e+00
0.0000000000000000e+00 1.0000000000000000e+01 0.0000000000000000e+00
0.0000000000000000e+00 1.0000000000000000e+01 0.0000000000000000e+00
ITEM: ATOMS id type x y z fx fy fz
1 1 4.9316 4.99577 4.99597 0.999805 -0.764467 0.00474521
2 2 5.47157 5.80775 5.07893 -0.114595 -0.276412 -0.0244391
3 2 5.61202 4.25919 4.985 -0.885209 1.04088 0.0196938
ITEM: TIMESTEP
52
ITEM: NUMBER OF ATOMS
3
ITEM: BOX BOUNDS xy xz yz pp pp pp
0.0000000000000000e+00 1.0000000000000000e+01 0.0000000000000000e+00
0.0000000000000000e+00 1.0000000000000000e+01 0.0000000000000000e+00
0.0000000000000000e+00 1.0000000000000000e+01 0.0000000000000000e+00
ITEM: ATOMS id type x y z fx fy fz
1 1 4.93058 4.99586 4.99622 1.58056 -0.822526 0.0229928
2 2 5.47594 5.81584 5.08021 -0.327687 -0.649048 -0.061241
3 2 5.6238 4.24969 4.97974 -1.25287 1.47157 0.0382482
ITEM: TIMESTEP
53
ITEM: NUMBER OF ATOMS
3
ITEM: BOX BOUNDS xy xz yz pp pp pp
0.0000000000000000e+00 1.0000000000000000e+01 0.0000000000000000e+00
0.0000000000000000e+00 1.0000000000000000e+01 0.0000000000000000e+00
0.0000000000000000e+00 1.0000000000000000e+01 0.0000000000000000e+00
ITEM: ATOMS id type x y z fx fy fz
1 1 4.9298 4.99583 4.99647 1.97778 -0.804294 0.0330596
2 2 5.4795 5.82233 5.08133 -0.493932 -0.931388 -0.0898573
3 2 5.63253 4.24375 4.97461 -1.48385 1.73568 0.0567978
ITEM: TIMESTEP
54
ITEM: NUMBER OF ATOMS
3
ITEM: BOX BOUNDS xy xz yz pp pp pp
0.0000000000000000e+00 1.0000000000000000e+01 0.0000000000000000e+00
0.0000000000000000e+00 1.0000000000000000e+01 0.0000000000000000e+00
0.0000000000000000e+00 1.0000000000000000e+01 0.0000000000000000e+00
ITEM: ATOMS id type x y z fx fy fz
1 1 4.92933 4.99567 4.99673 2.19492 -0.738679 0.036085
2 2 5.48186 5.82657 5.08224 -0.604863 -1.10768 -0.108503
3 2 5.63768 4.24197 4.96964 -1.59006 1.84636 0.0724181
ITEM: TIMESTEP
55
ITEM: NUMBER OF ATOMS
3
ITEM: BOX BOUNDS xy xz yz pp pp pp
0.0000000000000000e+00 1.0000000000000000e+01 0.0000000000000000e+00
0.0000000000000000e+00 1.0000000000000000e+01 0.0000000000000000e+00
0.0000000000000000e+00 1.0000000000000000e+01 0.0000000000000000e+00
ITEM: ATOMS id type x y z fx fy fz
1 1 4.92919 4.99541 4.99699 2.23482 -0.640815 0.0336572
2 2 5.48277 5.82816 5.08288 -0.656807 -1.17092 -0.116222
3 2 5.63902 4.2446 4.96487 -1.57802 1.81173 0.0825643
ITEM: TIMESTEP
56
ITEM: NUMBER OF ATOMS
3
ITEM: BOX BOUNDS xy xz yz pp pp pp
0.0000000000000000e+00 1.0000000000000000e+01 0.0000000000000000e+00
0.0000000000000000e+00 1.0000000000000000e+01 0.0000000000000000e+00
0.0000000000000000e+00 1.0000000000000000e+01 0.0000000000000000e+00
ITEM: ATOMS id type x y z fx fy fz
1 1 4.92938 4.99505 4.99725 2.09511 -0.511983 0.0280159
2 2 5.48211 5.82694 5.08325 -0.64914 -1.11989 -0.112613
3 2 5.63659 4.25154 4.96032 -1.44597 1.63187 0.0845968
ITEM: TIMESTEP
57
ITEM: NUMBER OF ATOMS
3
ITEM: BOX BOUNDS xy xz yz pp pp pp
0.0000000000000000e+00 1.0000000000000000e+01 0.0000000000000000e+00
0.0000000000000000e+00 1.0000000000000000e+01 0.0000000000000000e+00
0.0000000000000000e+00 1.0000000000000000e+01 0.0000000000000000e+00
ITEM: ATOMS id type x y z fx fy fz
1 1 4.92989 4.99461 4.99752 1.76843 -0.342663 0.022234
2 2 5.47991 5.82307 5.08334 -0.583318 -0.957752 -0.0976976
3 2 5.63073 4.26232 4.95599 -1.18511 1.30041 0.0754635
ITEM: TIMESTEP
58
ITEM: NUMBER OF ATOMS
3
ITEM: BOX BOUNDS xy xz yz pp pp pp
0.0000000000000000e+00 1.0000000000000000e+01 0.0000000000000000e+00
0.0000000000000000e+00 1.0000000000000000e+01 0.0000000000000000e+00
0.0000000000000000e+00 1.0000000000000000e+01 0.0000000000000000e+00
ITEM: ATOMS id type x y z fx fy fz
1 1 4.93066 4.99412 4.99779 1.24684 -0.118159 0.0202124
2 2 5.47633 5.81693 5.0832 -0.462551 -0.691762 -0.0719036
3 2 5.62207 4.27614 4.95187 -0.784286 0.809921 0.0516912
ITEM: TIMESTEP
59
ITEM: NUMBER OF ATOMS
3
ITEM: BOX BOUNDS xy xz yz pp pp pp
0.0000000000000000e+00 1.0000000000000000e+01 0.0000000000000000e+00
0.0000000000000000e+00 1.0000000000000000e+01 0.0000000000000000e+00
0.0000000000000000e+00 1.0000000000000000e+01 0.0000000000000000e+00
ITEM: ATOMS id type x y z fx fy fz
1 1 4.93162 4.99362 4.99806 0.52901 0.174774 0.0264244
2 2 5.47167 5.80918 5.08289 -0.292185 -0.334136 -0.0361713
3 2 5.6116 4.29182 4.94789 -0.236825 0.159362 0.00974687
ITEM: TIMESTEP
60
ITEM: NUMBER OF ATOMS
3
ITEM: BOX BOUNDS xy xz yz pp pp pp
0.0000000000000000e+00 1.0000000000000000e+01 0.0000000000000000e+00
0.0000000000000000e+00 1.0000000000000000e+01 0.0000000000000000e+00
0.0000000000000000e+00 1.0000000000000000e+01 0.0000000000000000e+00
ITEM: ATOMS id type x y z fx fy fz
1 1 4.93265 4.99315 4.99833 -0.355958 0.528532 0.0443502
2 2 5.46634 5.80067 5.08249 -0.0815494 0.0942886 0.0076372
3 2 5.60062 4.30778 4.94396 0.437508 -0.62282 -0.0519873
ITEM: TIMESTEP
61
ITEM: NUMBER OF ATOMS
3
ITEM: BOX BOUNDS xy xz yz pp pp pp
0.0000000000000000e+00 1.0000000000000000e+01 0.0000000000000000e+00
0.0000000000000000e+00 1.0000000000000000e+01 0.0000000000000000e+00
0.0000000000000000e+00 1.0000000000000000e+01 0.0000000000000000e+00
ITEM: ATOMS id type x y z fx fy fz
1 1 4.93362 4.99276 4.99861 -1.29745 0.875179 0.0720395