LAMMPS (29 Oct 2020)
OMP_NUM_THREADS environment is not set. Defaulting to 1 thread. (src/comm.cpp:94)
  using 1 OpenMP thread(s) per MPI task
variable        NSTEPS          equal 100
variable        THERMO_FREQ          equal 1
variable        DUMP_FREQ          equal 1
variable        TIME_STEP          equal 0.0005
variable        TEMP          equal 50.0
variable        PRES          equal 1.0
variable        TAU_T          equal 0.1
variable        TAU_P          equal 0.5

units           metal
boundary        p p p
atom_style      atomic

neighbor        1.0 bin

box          tilt large
read_data       /home/lujunbo/WORK/Deepmd/CP2K_kit/water/iter_2/02.lammps_calc/sys_0/data.lmp
Reading data file ...
  triclinic box = (0.0000000 0.0000000 0.0000000) to (10.000000 10.000000 10.000000) with tilt (0.0000000 0.0000000 0.0000000)
  1 by 1 by 1 MPI processor grid
  reading atoms ...
  3 atoms
  read_data CPU = 0.000 seconds
change_box   all triclinic
Changing box ...
  triclinic box = (0.0000000 0.0000000 0.0000000) to (10.000000 10.000000 10.000000) with tilt (0.0000000 0.0000000 0.0000000)
mass            1 16.0
mass            2 1.01

pair_style      deepmd /home/lujunbo/WORK/Deepmd/CP2K_kit/water/iter_2/01.train/0/frozen_model.pb
pair_coeff

thermo_style    custom step temp pe ke etotal press vol lx ly lz xy xz yz
thermo          ${THERMO_FREQ}
thermo          1
dump            1 all custom ${DUMP_FREQ} atom.dump id type x y z fx fy fz
dump            1 all custom 1 atom.dump id type x y z fx fy fz
velocity        all create ${TEMP} 835843
velocity        all create 50 835843
fix             1 all nvt temp ${TEMP} ${TEMP} ${TAU_T}
fix             1 all nvt temp 50 ${TEMP} ${TAU_T}
fix             1 all nvt temp 50 50 ${TAU_T}
fix             1 all nvt temp 50 50 0.1
timestep        ${TIME_STEP}
timestep        0.0005
run             ${NSTEPS}
run             100
Neighbor list info ...
  update every 1 steps, delay 10 steps, check yes
  max neighbors/atom: 2000, page size: 100000
  master list distance cutoff = 7
  ghost atom cutoff = 7
  binsize = 3.5, bins = 3 3 3
  1 neighbor lists, perpetual/occasional/extra = 1 0 0
  (1) pair deepmd, perpetual
      attributes: , newton on
      pair build: full/bin/atomonly
      stencil: full/bin/3d
      bin: standard
Per MPI rank memory allocation (min/avg/max) = 4.309 | 4.309 | 4.309 Mbytes
Step Temp PotEng KinEng TotEng Press Volume Lx Ly Lz Xy Xz Yz 
       0           50   -468.49503  0.012926014    -468.4821   -2140.1692         1000           10           10           10            0            0            0 
       1    37.956137   -468.49186 0.0098124316   -468.48205   -2163.8071         1000           10           10           10            0            0            0 
       2    106.08759   -468.50983  0.027425796    -468.4824   -1978.4284         1000           10           10           10            0            0            0 
       3    232.59354   -468.54326   0.06013015   -468.48313   -1591.5853         1000           10           10           10            0            0            0 
       4    373.92961   -468.58078  0.096668392   -468.48411   -1021.1844         1000           10           10           10            0            0            0 
       5    473.98875   -468.60766   0.12253571   -468.48512   -297.39135         1000           10           10           10            0            0            0 
       6    481.56808   -468.61022   0.12449512   -468.48572     532.4684         1000           10           10           10            0            0            0 
       7    378.90003   -468.58321  0.097953347   -468.48525    1373.6609         1000           10           10           10            0            0            0 
       8    210.51105   -468.53811  0.054421379   -468.48369    2070.6078         1000           10           10           10            0            0            0 
       9    73.952021    -468.5013  0.019118098   -468.48218    2478.5619         1000           10           10           10            0            0            0 
      10    56.627085   -468.49665   0.01463925   -468.48201    2522.8595         1000           10           10           10            0            0            0 
      11    169.53074   -468.52722  0.043827137   -468.48339    2196.6974         1000           10           10           10            0            0            0 
      12    338.80818   -468.57292  0.087588788   -468.48533    1558.3551         1000           10           10           10            0            0            0 
      13    462.66344   -468.60612   0.11960789   -468.48651    738.72694         1000           10           10           10            0            0            0 
      14    481.40267   -468.61104   0.12445236   -468.48659   -100.79981         1000           10           10           10            0            0            0 
      15    400.15769   -468.58953   0.10344888   -468.48608   -849.78851         1000           10           10           10            0            0            0 
      16    264.83728   -468.55388  0.068465811   -468.48541   -1454.5848         1000           10           10           10            0            0            0 
      17     131.5323   -468.51883  0.034003768   -468.48482   -1883.0856         1000           10           10           10            0            0            0 
      18    46.898955   -468.49659  0.012124331   -468.48447   -2115.4615         1000           10           10           10            0            0            0 
      19    37.664374    -468.4942 0.0097370048   -468.48446   -2142.8298         1000           10           10           10            0            0            0 
      20    106.26877   -468.51236  0.027472633   -468.48489   -1964.3555         1000           10           10           10            0            0            0 
      21     230.5698   -468.54538  0.059606972   -468.48578   -1586.9013         1000           10           10           10            0            0            0 
      22     367.4058   -468.58202  0.094981854   -468.48704   -1027.6978         1000           10           10           10            0            0            0 
      23    461.83406   -468.60783   0.11939348   -468.48844   -315.78432         1000           10           10           10            0            0            0 
      24    464.71071    -468.6096   0.12013715   -468.48946    502.58782         1000           10           10           10            0            0            0 
      25    360.99306   -468.58269   0.09332403   -468.48937    1332.8948         1000           10           10           10            0            0            0 
      26    196.68062   -468.53896  0.050845932   -468.48812    2022.2309         1000           10           10           10            0            0            0 
      27    66.920349   -468.50412  0.017300268   -468.48682    2429.9248         1000           10           10           10            0            0            0 
      28    53.751998   -468.50066  0.013895982   -468.48677    2481.9809         1000           10           10           10            0            0            0 
      29    164.39833   -468.53072  0.042500305   -468.48822    2169.8853         1000           10           10           10            0            0            0 
      30    326.33776   -468.57466  0.084364933    -468.4903    1550.4232         1000           10           10           10            0            0            0 
      31    443.07286   -468.60632   0.11454332   -468.49178    751.72555         1000           10           10           10            0            0            0 
      32    459.32935   -468.61105   0.11874596    -468.4923   -70.816164         1000           10           10           10            0            0            0 
      33    380.74638   -468.59066  0.098430665   -468.49223   -810.06934         1000           10           10           10            0            0            0 
      34    251.16535   -468.55683  0.064931339    -468.4919    -1410.946         1000           10           10           10            0            0            0 
      35    124.23603   -468.52363  0.032117535   -468.49151   -1839.5423         1000           10           10           10            0            0            0 
      36    44.711502    -468.5028   0.01155883   -468.49124   -2074.6328         1000           10           10           10            0            0            0 
      37    38.051959   -468.50112 0.0098372036   -468.49128    -2105.975         1000           10           10           10            0            0            0 
      38    105.85776   -468.51915  0.027366378   -468.49178   -1931.8152         1000           10           10           10            0            0            0 
      39     225.4729   -468.55111  0.058289321   -468.49282    -1558.921         1000           10           10           10            0            0            0 
      40    353.85826   -468.58582   0.09147954   -468.49434   -1004.9192         1000           10           10           10            0            0            0 
      41     437.5475   -468.60915   0.11311491   -468.49604    -299.3988         1000           10           10           10            0            0            0 
      42    431.20246    -468.6088   0.11147458   -468.49732    508.09925         1000           10           10           10            0            0            0 
      43    325.74153   -468.58167  0.084210796   -468.49746    1317.8779         1000           10           10           10            0            0            0 
      44    170.66888   -468.54058  0.044121367   -468.49646    1980.9963         1000           10           10           10            0            0            0 
      45    56.287942      -468.51  0.014551575   -468.49545    2366.5979         1000           10           10           10            0            0            0 
      46    53.407293   -468.50938  0.013806869   -468.49557    2405.9131         1000           10           10           10            0            0            0 
      47    160.95633   -468.53869  0.041610477   -468.49708    2092.8363         1000           10           10           10            0            0            0 
      48    308.37215   -468.57888  0.079720458   -468.49916    1487.1065         1000           10           10           10            0            0            0 
      49     409.4656   -468.60662   0.10585516   -468.50076    715.44503         1000           10           10           10            0            0            0 
      50    418.30827   -468.60972   0.10814118   -468.50158   -76.877764         1000           10           10           10            0            0            0 
      51     342.7271   -468.59045   0.08860191   -468.50185   -790.60415         1000           10           10           10            0            0            0 
      52    223.34949   -468.55952  0.057740375   -468.50178   -1371.3351         1000           10           10           10            0            0            0 
      53     109.0088   -468.52974  0.028180987   -468.50156   -1784.7822         1000           10           10           10            0            0            0 
      54    40.060694   -468.51174  0.010356502   -468.50138   -2009.6797         1000           10           10           10            0            0            0 
      55    38.748123   -468.51149  0.010017176   -468.50147   -2035.6477         1000           10           10           10            0            0            0 
      56    104.86926   -468.52914   0.02711083   -468.50203   -1861.1569         1000           10           10           10            0            0            0 
      57    215.62362   -468.55891  0.055743081   -468.50316   -1493.8566         1000           10           10           10            0            0            0 
      58    329.96346   -468.59009  0.085302248   -468.50479   -952.37115         1000           10           10           10            0            0            0 
      59    398.98746   -468.60974   0.10314635    -468.5066   -267.26627         1000           10           10           10            0            0            0 
      60    384.22386    -468.6073  0.099329664   -468.50797    509.41331         1000           10           10           10            0            0            0 
      61    282.88736   -468.58137  0.073132122   -468.50824    1278.4725         1000           10           10           10            0            0            0 
      62     143.8804   -468.54469  0.037196002    -468.5075    1901.6343         1000           10           10           10            0            0            0 
      63     47.15226   -468.51893  0.012189816   -468.50674    2259.7116         1000           10           10           10            0            0            0 
      64    50.545731   -468.52003  0.013067097   -468.50697    2288.9251         1000           10           10           10            0            0            0 
      65    148.28679   -468.54672  0.038335143   -468.50839    1985.1046         1000           10           10           10            0            0            0 
      66    277.22471     -468.582  0.071668212   -468.51033     1408.247         1000           10           10           10            0            0            0 
      67    363.89509   -468.60601  0.094074263   -468.51194    677.68162         1000           10           10           10            0            0            0 
      68    369.92654   -468.60855  0.095633517   -468.51292   -75.290013         1000           10           10           10            0            0            0 
      69     302.2675   -468.59152  0.078142283   -468.51338    -758.4434         1000           10           10           10            0            0            0 
      70    196.37899   -468.56424  0.050767952   -468.51347   -1316.8376         1000           10           10           10            0            0            0 
      71    95.700384   -468.53808  0.024740491   -468.51334   -1714.8641         1000           10           10           10            0            0            0 
      72    36.531284   -468.52266 0.0094440782   -468.51322   -1930.1738         1000           10           10           10            0            0            0 
      73    38.665714   -468.52333 0.0099958717   -468.51334   -1951.4214         1000           10           10           10            0            0            0 
      74    100.94668   -468.54002  0.026096765   -468.51392   -1776.7949         1000           10           10           10            0            0            0 
      75     201.1744   -468.56707  0.052007663   -468.51506   -1414.4584         1000           10           10           10            0            0            0 
      76    300.82693   -468.59445  0.077769865   -468.51668   -883.76955         1000           10           10           10            0            0            0 
      77    355.83367   -468.61042  0.091990223   -468.51843   -216.92061         1000           10           10           10            0            0            0 
      78    334.55016   -468.60619  0.086488004    -468.5197    529.61248         1000           10           10           10            0            0            0 
      79    239.90884   -468.58198  0.062021304   -468.51996    1255.8925         1000           10           10           10            0            0            0 
      80    119.15379   -468.55018  0.030803672   -468.51938     1833.966         1000           10           10           10            0            0            0 
      81    41.156386   -468.52947  0.010639761   -468.51883    2156.4912         1000           10           10           10            0            0            0 
      82    50.883666    -468.5323   0.01315446   -468.51915    2166.0353         1000           10           10           10            0            0            0 
      83    138.34453   -468.55622  0.035764867   -468.52045    1862.3976         1000           10           10           10            0            0            0 
      84    248.00817   -468.58629  0.064115145   -468.52217    1307.0356         1000           10           10           10            0            0            0 
      85    318.90722   -468.60608  0.082443988   -468.52363    612.17935         1000           10           10           10            0            0            0 
      86    320.26507   -468.60737   0.08279502   -468.52458   -103.37401         1000           10           10           10            0            0            0 
      87    258.90244   -468.59198  0.066931535   -468.52505   -753.15987         1000           10           10           10            0            0            0 
      88    165.93865   -468.56805  0.042898507   -468.52515   -1282.1665         1000           10           10           10            0            0            0 
      89     79.63823   -468.54563  0.020588098   -468.52504   -1654.6775         1000           10           10           10            0            0            0 
      90    31.774855   -468.53316 0.0082144448   -468.52495   -1848.7691         1000           10           10           10            0            0            0 
      91    38.833556   -468.53514  0.010039262    -468.5251   -1853.8061         1000           10           10           10            0            0            0 
      92    97.917863     -468.551  0.025313754   -468.52569   -1669.3277         1000           10           10           10            0            0            0 
      93    187.16874   -468.57516  0.048386916   -468.52677   -1305.4089         1000           10           10           10            0            0            0 
      94     271.1108   -468.59833  0.070087643   -468.52825   -783.46241         1000           10           10           10            0            0            0 
      95    311.69437   -468.61033  0.080579319   -468.52975   -138.82472         1000           10           10           10            0            0            0 
      96    285.08983   -468.60446  0.073701505   -468.53076    567.92904         1000           10           10           10            0            0            0 
      97    199.32237   -468.58243  0.051528878   -468.53091     1239.767         1000           10           10           10            0            0            0 
      98    97.948386   -468.55576  0.025321645   -468.53043    1761.7226         1000           10           10           10            0            0            0 
      99     37.61925   -468.53979 0.0097253394   -468.53006    2039.3224         1000           10           10           10            0            0            0 
     100    51.542649   -468.54374  0.013324821   -468.53041    2023.1264         1000           10           10           10            0            0            0 
Loop time of 0.128425 on 1 procs for 100 steps with 3 atoms

Performance: 33.638 ns/day, 0.713 hours/ns, 778.664 timesteps/s
248.7% CPU use with 1 MPI tasks x 1 OpenMP threads

MPI task timing breakdown:
Section |  min time  |  avg time  |  max time  |%varavg| %total
---------------------------------------------------------------
Pair    | 0.12292    | 0.12292    | 0.12292    |   0.0 | 95.71
Neigh   | 1.2875e-05 | 1.2875e-05 | 1.2875e-05 |   0.0 |  0.01
Comm    | 0.00036502 | 0.00036502 | 0.00036502 |   0.0 |  0.28
Output  | 0.0042956  | 0.0042956  | 0.0042956  |   0.0 |  3.34
Modify  | 0.00059628 | 0.00059628 | 0.00059628 |   0.0 |  0.46
Other   |            | 0.0002403  |            |       |  0.19

Nlocal:        3.00000 ave           3 max           3 min
Histogram: 1 0 0 0 0 0 0 0 0 0
Nghost:        78.0000 ave          78 max          78 min
Histogram: 1 0 0 0 0 0 0 0 0 0
Neighs:        0.00000 ave           0 max           0 min
Histogram: 1 0 0 0 0 0 0 0 0 0

Total # of neighbors = 0
Ave neighs/atom = 0.0000000
Neighbor list builds = 1
Dangerous builds = 0

Please see the log.cite file for references relevant to this simulation

Total wall time: 0:00:00
