       3
 i =        0, time =        0.000, E =       -17.2167223842
  O         5.2057356008        5.1837508971        4.7548694406
  H         5.5581433196        4.3801978925        5.2451305595
  H         4.4418566805        5.6198021075        5.1592670293
       3
 i =        1, time =        0.500, E =       -17.2170182669
  O         5.2056540385        5.1838966614        4.7548309227
  H         5.5554804110        4.3810969856        5.2430160615
  H         4.4456896657        5.6165526257        5.1618042848
       3
 i =        2, time =        1.000, E =       -17.2176168008
  O         5.2057415804        5.1838938964        4.7547119259
  H         5.5501402161        4.3854098534        5.2402694626
  H         4.4492681849        5.6121739566        5.1658761759
       3
 i =        3, time =        1.500, E =       -17.2183548431
  O         5.2059956639        5.1837636055        4.7544913972
  H         5.5424531159        4.3925668165        5.2371594696
  H         4.4523032814        5.6069037818        5.1715516694
       3
 i =        4, time =        2.000, E =       -17.2190231714
  O         5.2063969285        5.1835494402        4.7541431711
  H         5.5329175702        4.4016640228        5.2341238670
  H         4.4546038114        5.6009552359        5.1788134503
       3
 i =        5, time =        2.500, E =       -17.2194473285
  O         5.2069094502        5.1833155411        4.7536384946
  H         5.5221714570        4.4115120219        5.2317447049
  H         4.4561018959        5.5945024418        5.1875430642
       3
 i =        6, time =        3.000, E =       -17.2195788780
  O         5.2074841993        5.1831396824        4.7529498376
  H         5.5109335082        4.4207491682        5.2306882922
  H         4.4568569491        5.5876758762        5.1975201808
       3
 i =        7, time =        3.500, E =       -17.2195375866
  O         5.2080659640        5.1831008240        4.7520565296
  H         5.4999121223        4.4280335361        5.2315989701
  H         4.4570367005        5.5805679632        5.2084379682
       3
 i =        8, time =        4.000, E =       -17.2195444674
  O         5.2086023887        5.1832626863        4.7509519275
  H         5.4896973049        4.4322896056        5.2349554224
  H         4.4568806726        5.5732461114        5.2199311038
       3
 i =        9, time =        4.500, E =       -17.2197630551
  O         5.2090523518        5.1836579901        4.7496503233
  H         5.4806699324        4.4329410068        5.2409272544
  H         4.4566563329        5.5657689898        5.2316092189
       3
 i =       10, time =        5.000, E =       -17.2201704700
  O         5.2093908719        5.1842794086        4.7481904526
  H         5.4729649122        4.4300378869        5.2492886902
  H         4.4566182570        5.5582016517        5.2430885836
       3
 i =       11, time =        5.500, E =       -17.2205747548
  O         5.2096092962        5.1850811108        4.7466331360
  H         5.4665007183        4.4242211820        5.2594324469
  H         4.4569764082        5.5506262338        5.2540192866
       3
 i =       12, time =        6.000, E =       -17.2207570368
  O         5.2097118274        5.1859898921        4.7450530824
  H         5.4610568235        4.4165413433        5.2704818702
  H         4.4578754733        5.5431468013        5.2641060588
       3
 i =       13, time =        6.500, E =       -17.2206097262
  O         5.2097106488        5.1869208082        4.7435277165
  H         5.4563627001        4.4082118343        5.2814539593
  H         4.4593845480        5.5358886704        5.2731227688
       3
 i =       14, time =        7.000, E =       -17.2201774926
  O         5.2096215776        5.1877916559        4.7421267565
  H         5.4521686519        4.4003849799        5.2914144359
  H         4.4614958486        5.5289939422        5.2809201854
       3
 i =       15, time =        7.500, E =       -17.2196088784
  O         5.2094610856        5.1885329392        4.7409051060
  H         5.4482869779        4.3940007756        5.2995864481
  H         4.4641306498        5.5226155409        5.2874265214
       3
 i =       16, time =        8.000, E =       -17.2190774324
  O         5.2092445635        5.1890928877        4.7398996142
  H         5.4446075812        4.3897141450        5.3054055864
  H         4.4671506801        5.5169112887        5.2926406937
       3
 i =       17, time =        8.500, E =       -17.2187183808
  O         5.2089853316        5.1894388244        4.7391288687
  H         5.4410977687        4.3878793522        5.3085337892
  H         4.4703732796        5.5120385007        5.2966199675
       3
 i =       18, time =        9.000, E =       -17.2185958370
  O         5.2086939822        5.1895566652        4.7385947023
  H         5.4377951575        4.3885645086        5.3088508922
  H         4.4735891147        5.5081482283        5.2994640857
       3
 i =       19, time =        9.500, E =       -17.2186969839
  O         5.2083777161        5.1894498862        4.7382843225
  H         5.4347988960        4.3915753996        5.3064387923
  H         4.4765819206        5.5053784464        5.3012978869
       3
 i =       20, time =       10.000, E =       -17.2189459474
  O         5.2080396078        5.1891385544        4.7381724884
  H         5.4322609150        4.3964799393        5.3015651789
  H         4.4791495476        5.5038452842        5.3022540230
       3
 i =       21, time =       10.500, E =       -17.2192329529
  O         5.2076779320        5.1886582933        4.7382236889
  H         5.4303761830        4.4026350828        5.2946656737
  H         4.4811252401        5.5036323601        5.3024572666
       3
 i =       22, time =       11.000, E =       -17.2194553522
  O         5.2072857963        5.1880584836        4.7383946448
  H         5.4293695261        4.4092262888        5.2863173738
  H         4.4823969240        5.5047795885        5.3020119888
       3
 i =       23, time =       11.500, E =       -17.2195616582
  O         5.2068514836        5.1873987711        4.7386376203
  H         5.4294758729        4.4153320480        5.2771943200
  H         4.4829211755        5.5072734152        5.3009944737
       3
 i =       24, time =       12.000, E =       -17.2195796446
  O         5.2063598421        5.1867431462        4.7389048797
  H         5.4309117460        4.4200226708        5.2679985537
  H         4.4827288746        5.5110408800        5.2994512896
       3
 i =       25, time =       12.500, E =       -17.2196054370
  O         5.2057948353        5.1861516715        4.7391541009
  H         5.4338382774        4.4224902329        5.2593697133
  H         4.4819208532        5.5159493794        5.2974041204
       3
 i =       26, time =       13.000, E =       -17.2197465313
  O         5.2051429389        5.1856711526        4.7393537927
  H         5.4383205235        4.4221892950        5.2517892276
  H         4.4806538093        5.5218128246        5.2948600562
       3
 i =       27, time =       13.500, E =       -17.2200475419
  O         5.2043966465        5.1853272235        4.7394871537
  H         5.4442931779        4.4189499854        5.2455063187
  H         4.4791191852        5.5284032072        5.2918250070
       3
 i =       28, time =       14.000, E =       -17.2204517052
  O         5.2035570562        5.1851204838        4.7395528851
  H         5.4515448929        4.4130235884        5.2405121464
  H         4.4775187814        5.5354663275        5.2883174383
       3
 i =       29, time =       14.500, E =       -17.2208297833
  O         5.2026347407        5.1850280933        4.7395624866
  H         5.4597298137        4.4050399889        5.2365722910
  H         4.4760408737        5.5427396931        5.2843795303
       3
 i =       30, time =       15.000, E =       -17.2210542809
  O         5.2016486616        5.1850101191        4.7395349661
  H         5.4684054858        4.3958896637        5.2333043283
  H         4.4748402390        5.5499704996        5.2800837681
       3
 i =       31, time =       15.500, E =       -17.2210648834
  O         5.2006236161        5.1850182815        4.7394907942
  H         5.4770867933        4.3865690889        5.2302721710
  H         4.4740243868        5.5569318741        5.2755340611
       3
 i =       32, time =       16.000, E =       -17.2208880789
  O         5.1995870676        5.1850044898        4.7394468155
  H         5.4853015238        4.3780330940        5.2270697262
  H         4.4736471397        5.5634351599        5.2708618529
       3
 i =       33, time =       16.500, E =       -17.2206124265
  O         5.1985661180        5.1849274457        4.7394130089
  H         5.4926360790        4.3710831944        5.2233786468
  H         4.4737094368        5.5693368682        5.2662186107
       3
 i =       34, time =       17.000, E =       -17.2203440767
  O         5.1975850481        5.1847568663        4.7393911081
  H         5.4987664851        4.3663004803        5.2189990025
  H         4.4741663844        5.5745398860        5.2617662652
       3
 i =       35, time =       17.500, E =       -17.2201659832
  O         5.1966635021        5.1844757429        4.7393745847
  H         5.5034755416        4.3640147857        5.2138599201
  H         4.4749386743        5.5789897481        5.2576670257
       3
 i =       36, time =       18.000, E =       -17.2201127979
  O         5.1958151843        5.1840813402        4.7393494043
  H         5.5066600443        4.3642971592        5.2080184856
  H         4.4759264011        5.5826674459        5.2540733886
       3
 i =       37, time =       18.500, E =       -17.2201645106
  O         5.1950469168        5.1835854592        4.7392951246
  H         5.5083317691        4.3669652428        5.2016529017
  H         4.4770234954        5.5855804405        5.2511188828
       3
 i =       38, time =       19.000, E =       -17.2202582076
  O         5.1943580586        5.1830140849        4.7391861635
  H         5.5086136331        4.3715979913        5.1950517627
  H         4.4781311141        5.5877534991        5.2489101109
       3
 i =       39, time =       19.500, E =       -17.2203157644
  O         5.1937404491        5.1824061053        4.7389932943
  H         5.5077297736        4.3775635377        5.1885973117
  H         4.4791686165        5.5892204957        5.2475208497
       3
 i =       40, time =       20.000, E =       -17.2202812916
  O         5.1931791635        5.1818105077        4.7386855743
  H         5.5059857417        4.3840688604        5.1827382536
  H         4.4800808604        5.5900178921        5.2469890548
       3
 i =       41, time =       20.500, E =       -17.2201546218
  O         5.1926543851        5.1812815018        4.7382329444
  H         5.5037352379        4.3902396294        5.1779477360
  H         4.4808408828        5.5901804431        5.2473174826
       3
 i =       42, time =       21.000, E =       -17.2200007036
  O         5.1921444300        5.1808714933        4.7376095917
  H         5.5013328177        4.3952324632        5.1746655014
  H         4.4814483808        5.5897390749        5.2484776666
       3
 i =       43, time =       21.500, E =       -17.2199205917
  O         5.1916295549        5.1806227435        4.7367977955
  H         5.4990783876        4.3983660977        5.1732302206
  H         4.4819245681        5.5887208278        5.2504164637
       3
 i =       44, time =       22.000, E =       -17.2199933710
  O         5.1910956637        5.1805595687        4.7357915240
  H         5.4971659830        4.3992428334        5.1738161827
  H         4.4823052625        5.5871503081        5.2530633226
       3
 i =       45, time =       22.500, E =       -17.2202252117
  O         5.1905368202        5.1806834022        4.7345987402
  H         5.4956525163        4.3978239698        5.1763927549
  H         4.4826340022        5.5850521127        5.2563365293
       3
 i =       46, time =       23.000, E =       -17.2205430472
  O         5.1899557527        5.1809724307        4.7332415511
  H         5.4944574299        4.3944323529        5.1807209762
  H         4.4829565175        5.5824536457        5.2601473485
       3
 i =       47, time =       23.500, E =       -17.2208373048
  O         5.1893622808        5.1813859402        4.7317539917
  H         5.4933931180        4.3896807047        5.1863894979
  H         4.4833170194        5.5793877610        5.2644019841
       3
 i =       48, time =       24.000, E =       -17.2210211232
  O         5.1887703468        5.1818718475        4.7301780409
  H         5.4922149409        4.3843501156        5.1928784263
  H         4.4837560117        5.5758949153        5.2690021624
       3
 i =       49, time =       24.500, E =       -17.2210674036
  O         5.1881946871        5.1823751043        4.7285589515
  H         5.4906748998        4.3792559273        5.1996323876
  H         4.4843090193        5.5720247142        5.2738452839
       3
 i =       50, time =       25.000, E =       -17.2210086663
  O         5.1876480311        5.1828449824        4.7269409290
  H         5.4885661215        4.3751324643        5.2061259782
  H         4.4850053429        5.5678370354        5.2788250463
       3
 i =       51, time =       25.500, E =       -17.2209102688
  O         5.1871392557        5.1832402415        4.7253637746
  H         5.4857523225        4.3725522946        5.2119124517
  H         4.4858664785        5.5634028219        5.2838328494
       3
 i =       52, time =       26.000, E =       -17.2208365521
  O         5.1866725062        5.1835321146        4.7238606426
  H         5.4821826778        4.3718806182        5.2166542809
  H         4.4869042041        5.5588046576        5.2887598914
       3
 i =       53, time =       26.500, E =       -17.2208247422
  O         5.1862470717        5.1837055688        4.7224567287
  H         5.4778956768        4.3732568355        5.2201390814
  H         4.4881183344        5.5541371787        5.2934999562
       3
 i =       54, time =       27.000, E =       -17.2208731781
  O         5.1858577429        5.1837593951        4.7211686188
  H         5.4730157756        4.3765943560        5.2222853712
  H         4.4894945682        5.5495069483        5.2979526344
       3
 i =       55, time =       27.500, E =       -17.2209448234
  O         5.1854954217        5.1837054230        4.7200039934
  H         5.4677450919        4.3815929168        5.2231411018
  H         4.4910030380        5.5450313111        5.3020268176
       3
 i =       56, time =       28.000, E =       -17.2209839821
  O         5.1851478213        5.1835670177        4.7189614919
  H         5.4623505298        4.3877626935        5.2228751370
  H         4.4925981048        5.5408357480        5.3056442106
       3
 i =       57, time =       28.500, E =       -17.2209417179
  O         5.1848004654        5.1833768811        4.7180314371
  H         5.4571453083        4.3944640975        5.2217592899
  H         4.4942198917        5.5370493976        5.3087425644
       3
 i =       58, time =       29.000, E =       -17.2208018754
  O         5.1844380895        5.1831736254        4.7171977032
  H         5.4524636465        4.4009672184        5.2201374422
  H         4.4957976515        5.5337988390        5.3112782314
       3
 i =       59, time =       29.500, E =       -17.2205955671
  O         5.1840463528        5.1829970246        4.7164406042
  H         5.4486286572        4.4065332250        5.2183799037
  H         4.4972550779        5.5312006320        5.3132273549
       3
 i =       60, time =       30.000, E =       -17.2203929304
  O         5.1836137385        5.1828823012        4.7157406337
  H         5.4459158829        4.4105115348        5.2168259957
  H         4.4985168781        5.5293534107        5.3145855430
       3
 i =       61, time =       30.500, E =       -17.2202714243
  O         5.1831333689        5.1828543693        4.7150824683
  H         5.4445179327        4.4124371750        5.2157241890
  H         4.4995158433        5.5283306805        5.3153659963
       3
 i =       62, time =       31.000, E =       -17.2202760472
  O         5.1826043173        5.1829233830        4.7144583075
  H         5.4445176144        4.4121064866        5.2151844594
  H         4.5001997024        5.5281749804        5.3155961953
       3
 i =       63, time =       31.500, E =       -17.2203960072
  O         5.1820320318        5.1830828875        4.7138695776
  H         5.4458763481        4.4096100588        5.2151572284
  H         4.5005367772        5.5288941387        5.3153137649
       3
 i =       64, time =       32.000, E =       -17.2205732027
  O         5.1814276832        5.1833111917        4.7133264910
  H         5.4484411928        4.4053127862        5.2154459308
  H         4.5005198027        5.5304600434        5.3145620858
       3
 i =       65, time =       32.500, E =       -17.2207357399
  O         5.1808065699        5.1835755641        4.7128456671
  H         5.4519686483        4.3997870306        5.2157490598
  H         4.5001674271        5.5328100761        5.3133862263
       3
 i =       66, time =       33.000, E =       -17.2208338877
  O         5.1801859771        5.1838380314        4.7124466320
  H         5.4561590367        4.3937179998        5.2157184964
  H         4.4995232239        5.5358512200        5.3118295995
       3
 i =       67, time =       33.500, E =       -17.2208585351
  O         5.1795830031        5.1840613086        4.7121481731
  H         5.4606937405        4.3878049353        5.2150185394
  H         4.4986521366        5.5394662705        5.3099319202
       3
 i =       68, time =       34.000, E =       -17.2208369246
  O         5.1790127458        5.1842137506        4.7119652964
  H         5.4652688557        4.3826759223        5.2133740818
  H         4.4976348656        5.5435215485        5.3077285761
       3
 i =       69, time =       34.500, E =       -17.2208133093
  O         5.1784870504        5.1842728078        4.7119071046
  H         5.4696216108        4.3788257849        5.2106030177
  H         4.4965608167        5.5478750912        5.3052515495
       3
 i =       70, time =       35.000, E =       -17.2208262725
  O         5.1780138198        5.1842270135        4.7119755681
  H         5.4735487948        4.3765776325        5.2066336254
  H         4.4955205308        5.5523844221        5.3025316456
       3
 i =       71, time =       35.500, E =       -17.2208917311
  O         5.1775967884        5.1840767878        4.7121649894
  H         5.4769180985        4.3760632414        5.2015101894
  H         4.4945981061        5.5569134481        5.2996017128
       3
 i =       72, time =       36.000, E =       -17.2209962497
  O         5.1772356230        5.1838343597        4.7124619797
  H         5.4796736539        4.3772184394        5.1953901459
  H         4.4938642494        5.5613381846        5.2965002065
       3
 i =       73, time =       36.500, E =       -17.2211019415
  O         5.1769262793        5.1835229462        4.7128458775
  H         5.4818363759        4.3797910229        5.1885342810
  H         4.4933704513        5.5655512728        5.2932746418
       3
 i =       74, time =       37.000, E =       -17.2211616169
  O         5.1766616177        5.1831751175        4.7132896770
  H         5.4834984997        4.3833623460        5.1812895786
  H         4.4931446374        5.5694652868        5.2899843439
       3
 i =       75, time =       37.500, E =       -17.2211398618
  O         5.1764323687        5.1828301339        4.7137616046
  H         5.4848107164        4.3873862531        5.1740630346
  H         4.4931885282        5.5730147894        5.2867021260
       3
 i =       76, time =       38.000, E =       -17.2210319741
  O         5.1762285168        5.1825300838        4.7142274587
  H         5.4859604281        4.3912486407        5.1672852203
  H         4.4934772470        5.5761568621        5.2835144431
       3
 i =       77, time =       38.500, E =       -17.2208705530
  O         5.1760411056        5.1823149029        4.7146536506
  H         5.4871410582        4.3943461895        5.1613647314
  H         4.4939613241        5.5788699377        5.2805199459
       3
 i =       78, time =       39.000, E =       -17.2207129386
  O         5.1758642503        5.1822168392        4.7150106176
  H         5.4885156755        4.3961761455        5.1566387263
  H         4.4945713517        5.5811507519        5.2778262126
       3
 i =       79, time =       39.500, E =       -17.2206132552
  O         5.1756969278        5.1822554220        4.7152760110
  H         5.4901818200        4.3964199807        5.1533288792
  H         4.4952250822        5.5830096153        5.2755446497
       3
 i =       80, time =       40.000, E =       -17.2205947330
  O         5.1755439722        5.1824342414        4.7154369723
  H         5.4921465736        4.3949999729        5.1515134894
  H         4.4958368110        5.5844643099        5.2737834178
       3
 i =       81, time =       40.500, E =       -17.2206401842
  O         5.1754158330        5.1827405387        4.7154909796
  H         5.4943194984        4.3920921736        5.1511234780
  H         4.4963282860        5.5855334162        5.2726386847
       3
 i =       82, time =       41.000, E =       -17.2207063918
  O         5.1753270131        5.1831478132        4.7154451530
  H         5.4965259017        4.3880916224        5.1519631935
  H         4.4966399314        5.5862300122        5.2721849583
       3
 i =       83, time =       41.500, E =       -17.2207513389
  O         5.1752935508        5.1836207143        4.7153143434
  H         5.4985364752        4.3835403475        5.1537495921
  H         4.4967406637        5.5865567923        5.2724658782
       3
 i =       84, time =       42.000, E =       -17.2207562695
  O         5.1753302035        5.1841208950        4.7151185739
  H         5.5001049369        4.3790383018        5.1561591907
  H         4.4966344800        5.5865035393        5.2734871601
       3
 i =       85, time =       42.500, E =       -17.2207314181
  O         5.1754480138        5.1846124809        4.7148803920
  H         5.5010045700        4.3751572727        5.1588724673
  H         4.4963621792        5.5860476603        5.2752133695
       3
 i =       86, time =       43.000, E =       -17.2207063083
  O         5.1756526881        5.1850662728        4.7146224910
  H         5.5010576294        4.3723720547        5.1616093175
  H         4.4959975964        5.5851578850        5.2775693394
       3
 i =       87, time =       43.500, E =       -17.2207128336
  O         5.1759439261        5.1854623546        4.7143657571
  H         5.5001549973        4.3710136581        5.1641531885
  H         4.4956386966        5.5838006987        5.2804461916
       3
 i =       88, time =       44.000, E =       -17.2207698676
  O         5.1763155734        5.1857912448        4.7141277472
  H         5.4982664751        4.3712435988        5.1663649008
  H         4.4953949998        5.5819484804        5.2837109022
       3
 i =       89, time =       44.500, E =       -17.2208748412
  O         5.1767563911        5.1860538939        4.7139215482
  H         5.4954432706        4.3730454050        5.1681881394
  H         4.4953730221        5.5795882130        5.2872181759
       3
 i =       90, time =       45.000, E =       -17.2210042219
  O         5.1772512188        5.1862608148        4.7137550206
  H         5.4918140723        4.3762302465        5.1696482133
  H         4.4956618562        5.5767294195        5.2908230188
       3
 i =       91, time =       45.500, E =       -17.2211222319
  O         5.1777823890        5.1864304901        4.7136304874
  H         5.4875752476        4.3804556581        5.1708444830
  H         4.4963206641        5.5734101541        5.2943926875
       3
 i =       92, time =       46.000, E =       -17.2211949633
  O         5.1783313245        5.1865870554        4.7135449875
  H         5.4829749897        4.3852583453        5.1719356864
  H         4.4973694419        5.5697001311        5.2978169982
       3
 i =       93, time =       46.500, E =       -17.2212048030
  O         5.1788802515        5.1867572334        4.7134912300
  H         5.4782913217        4.3901024317        5.1731171318
  H         4.4987842955        5.5657003430        5.3010159179
       3
 i =       94, time =       47.000, E =       -17.2211586015
  O         5.1794139387        5.1869665956        4.7134592899
  H         5.4738048394        4.3944420218        5.1745898538
  H         4.5004977631        5.5615390622        5.3039437306
       3
 i =       95, time =       47.500, E =       -17.2210844466
  O         5.1799212708        5.1872354957        4.7134389202
  H         5.4697688652        4.3977924372        5.1765242274
  H         4.5024043950        5.5573644629        5.3065891449
       3
 i =       96, time =       48.000, E =       -17.2210172744
  O         5.1803963727        5.1875753435        4.7134221190
  H         5.4663816943        4.3997989708        5.1790239100
  H         4.5043712141        5.5533345503        5.3089710753
       3
 i =       97, time =       48.500, E =       -17.2209807597
  O         5.1808390042        5.1879860538        4.7134054119
  H         5.4637662961        4.4002888566        5.1820981553
  H         4.5062521420        5.5496054756        5.3111304452
       3
 i =       98, time =       49.000, E =       -17.2209763203
  O         5.1812540319        5.1884554051        4.7133913152
  H         5.4619618562        4.3992935923        5.1856501331
  H         4.5079049251        5.5463194061        5.3131186716
       3
 i =       99, time =       49.500, E =       -17.2209857394
  O         5.1816500286        5.1889605702        4.7133886365
  H         5.4609286164        4.3970363540        5.1894850334
  H         4.5092082881        5.5435933965        5.3149845433
       3
 i =      100, time =       50.000, E =       -17.2209846770
  O         5.1820372824        5.1894714844        4.7134116161
  H         5.4605640553        4.3938882456        5.1933360902
  H         4.5100770971        5.5415105737        5.3167614869
       3
 i =      101, time =       50.500, E =       -17.2209577558
  O         5.1824256695        5.1899552110        4.7134781922
  H         5.4607258134        4.3903055500        5.1969017253
  H         4.5104730341        5.5401148726        5.3184575710
       3
 i =      102, time =       51.000, E =       -17.2209066361
  O         5.1828228276        5.1903803469        4.7136078252
  H         5.4612562010        4.3867618777        5.1998852417
  H         4.5104090730        5.5394099716        5.3200500149
       3
 i =      103, time =       51.500, E =       -17.2208483256
  O         5.1832329335        5.1907206975        4.7138192631
  H         5.4620041632        4.3836877846        5.2020298717
  H         4.5099469499        5.5393624742        5.3214853996
       3
 i =      104, time =       52.000, E =       -17.2208065629
  O         5.1836561861        5.1909578250        4.7141285112
  H         5.4628423760        4.3814241884        5.2031449942
  H         4.5091882715        5.5399086135        5.3226853647
       3
 i =      105, time =       52.500, E =       -17.2208013125
  O         5.1840889282        5.1910824383        4.7145471239
  H         5.4636789114        4.3801917712        5.2031226407
  H         4.5082608184        5.5409633080        5.3235568039
       3
 i =      106, time =       53.000, E =       -17.2208406434
  O         5.1845242319        5.1910947944        4.7150808763
  H         5.4644638568        4.3800747262        5.2019451044
  H         4.5073024203        5.5424301086        5.3240045685
       3
 i =      107, time =       53.500, E =       -17.2209174678
  O         5.1849527789        5.1910043172        4.7157288519
  H         5.4651915463        4.3810170595        5.1996850669
  H         4.5064445315        5.5442108556        5.3239450172
       3
 i =      108, time =       54.000, E =       -17.2210119304
  O         5.1853639006        5.1908285729        4.7164830109
  H         5.4658987704        4.3828302331        5.1964990738
  H         4.5057973924        5.5462140992        5.3233184633
       3
 i =      109, time =       54.500, E =       -17.2210987192
  O         5.1857466955        5.1905916388        4.7173283401
  H         5.4666589012        4.3852121589        5.1926144596
  H         4.5054382686        5.5483616211        5.3220991841
       3
 i =      110, time =       55.000, E =       -17.2211569504
  O         5.1860912036        5.1903218220        4.7182436804
  H         5.4675715633        4.3877786434        5.1883093168
  H         4.5054035505        5.5505927718        5.3203021189
       3
 i =      111, time =       55.500, E =       -17.2211787132
  O         5.1863896083        5.1900487266        4.7192032764
  H         5.4687477014        4.3901074826        5.1838856159
  H         4.5056853055        5.5528664423        5.3179856048
       3
 i =      112, time =       56.000, E =       -17.2211719453
  O         5.1866374021        5.1897998175        4.7201789668
  H         5.4702907105        4.3917926492        5.1796370723
  H         4.5062325341        5.5551606075        5.3152499190
       3