 DBCSR| CPU Multiplication driver                                           XSMM
 DBCSR| Multrec recursion limit                                              512
 DBCSR| Multiplication stack size                                           1000
 DBCSR| Maximum elements for images                                    UNLIMITED
 DBCSR| Multiplicative factor virtual images                                   1
 DBCSR| Use multiplication densification                                       T
 DBCSR| Multiplication size stacks                                             3
 DBCSR| Use memory pool for CPU allocation                                     F
 DBCSR| Number of 3D layers                                               SINGLE
 DBCSR| Use MPI memory allocation                                              F
 DBCSR| Use RMA algorithm                                                      F
 DBCSR| Use Communication thread                                               T
 DBCSR| Communication thread load                                             87
 DBCSR| MPI: My node id                                                        0
 DBCSR| MPI: Number of nodes                                                  24
 DBCSR| OMP: Current number of threads                                         1
 DBCSR| OMP: Max number of threads                                             1
 DBCSR| Split modifier for TAS multiplication algorithm                  1.0E+00


  **** **** ******  **  PROGRAM STARTED AT               2021-10-27 15:10:57.763
 ***** ** ***  *** **   PROGRAM STARTED ON                                node10
 **    ****   ******    PROGRAM STARTED BY                               lujunbo
 ***** **    ** ** **   PROGRAM PROCESS ID                                326058
  **** **  *******  **  PROGRAM STARTED IN /home/lujunbo/WORK/deepmd/c2h6/mtd/tr
                                           ain_4_sys/cp2k_md/sys_4/data/task_231
                                           5

 CP2K| version string:                                          CP2K version 8.2
 CP2K| source code revision number:                                  git:310b7ab
 CP2K| cp2kflags: omp libint fftw3 libxc elpa parallel mpi3 scalapack xsmm plume
 CP2K|            d2 spglib mkl libvori libbqb
 CP2K| is freely available from                            https://www.cp2k.org/
 CP2K| Program compiled at                          Tue Jun  1 15:18:23 CST 2021
 CP2K| Program compiled on                                                   mgr
 CP2K| Program compiled for                                                local
 CP2K| Data directory path                       /home/lujunbo/bin/cp2k-8.2/data
 CP2K| Input file name                                                 input.inp

 GLOBAL| Force Environment number                                              1
 GLOBAL| Basis set file name            /home/lujunbo/bin/cp2k-8.2/data/BASIS_MO
 GLOBAL| Potential file name            /home/lujunbo/bin/cp2k-8.2/data/POTENTIA
 GLOBAL| MM Potential file name                                     MM_POTENTIAL
 GLOBAL| Coordinate file name                                      __STD_INPUT__
 GLOBAL| Method name                                                        CP2K
 GLOBAL| Project name                                                       cp2k
 GLOBAL| Run type                                                   ENERGY_FORCE
 GLOBAL| FFT library                                                       FFTW3
 GLOBAL| Diagonalization library                                            ELPA
 GLOBAL| Minimum number of eigenvectors for ELPA usage                        16
 GLOBAL| Orthonormality check for eigenvectors                          DISABLED
 GLOBAL| Matrix multiplication library                                    SCALAP
 GLOBAL| All-to-all communication in single precision                          F
 GLOBAL| FFTs using library dependent lengths                                  F
 GLOBAL| Grid backend                                                       AUTO
 GLOBAL| Global print level                                                  LOW
 GLOBAL| MPI I/O enabled                                                       T
 GLOBAL| Total number of message passing processes                            24
 GLOBAL| Number of threads for this process                                    1
 GLOBAL| This output is from process                                           0
 GLOBAL| CPU model name             Intel(R) Xeon(R) Platinum 9242 CPU @ 2.30GHz
 GLOBAL| CPUID                                                              1003

 MEMORY| system memory details [Kb]
 MEMORY|                        rank 0           min           max       average
 MEMORY| MemTotal            394609400     394609400     394609400     394609400
 MEMORY| MemFree             298924728     298924728     298924728     298924728
 MEMORY| Buffers                179096        179096        179096        179096
 MEMORY| Cached               62910816      62910816      62910816      62910816
 MEMORY| Slab                  1284088       1284088       1284088       1284088
 MEMORY| SReclaimable           598240        598240        598240        598240
 MEMORY| MemLikelyFree       362612880     362612880     362612880     362612880


 GENERATE|  Preliminary Number of Bonds generated:                             0
 GENERATE|  Achieved consistency in connectivity generation.

 *******************************************************************************
 *******************************************************************************
 **                                                                           **
 **     #####                         ##              ##                      **
 **    ##   ##            ##          ##              ##                      **
 **   ##     ##                       ##            ######                    **
 **   ##     ##  ##   ##  ##   #####  ##  ##   ####   ##    #####    #####    **
 **   ##     ##  ##   ##  ##  ##      ## ##   ##      ##   ##   ##  ##   ##   **
 **   ##  ## ##  ##   ##  ##  ##      ####     ###    ##   ######   ######    **
 **    ##  ###   ##   ##  ##  ##      ## ##      ##   ##   ##       ##        **
 **     #######   #####   ##   #####  ##  ##  ####    ##    #####   ##        **
 **           ##                                                    ##        **
 **                                                                           **
 **                                                ... make the atoms dance   **
 **                                                                           **
 **            Copyright (C) by CP2K developers group (2000-2021)             **
 **                      J. Chem. Phys. 152, 194103 (2020)                    **
 **                                                                           **
 *******************************************************************************


 TOTAL NUMBERS AND MAXIMUM NUMBERS

  Total number of            - Atomic kinds:                                   2
                             - Atoms:                                          8
                             - Shell sets:                                     8
                             - Shells:                                        28
                             - Primitive Cartesian functions:                 40
                             - Cartesian basis functions:                     58
                             - Spherical basis functions:                     56

  Maximum angular momentum of- Orbital basis functions:                        2
                             - Local part of the GTH pseudopotential:          2
                             - Non-local part of the GTH pseudopotential:      0


 SCF PARAMETERS         Density guess:                                   RESTART
                        --------------------------------------------------------
                        max_scf:                                             100
                        max_scf_history:                                       0
                        max_diis:                                              4
                        --------------------------------------------------------
                        eps_scf:                                        1.00E-06
                        eps_scf_history:                                0.00E+00
                        eps_diis:                                       1.00E-01
                        eps_eigval:                                     1.00E-05
                        --------------------------------------------------------
                        level_shift [a.u.]:                                 0.00
                        --------------------------------------------------------
                        Outer loop SCF in use 
                        No variables optimised in outer loop
                        eps_scf                                         1.00E-06
                        max_scf                                                6
                        No outer loop optimization
                        step_size                                       5.00E-01

 Number of electrons:                                                         14
 Number of occupied orbitals:                                                  7
 Number of molecular orbitals:                                                 7

 Number of orbital functions:                                                 56
 Number of independent orbital functions:                                     56

 Extrapolation method: initial_guess

 *** WARNING in qs_initial_guess.F:309 :: User requested to restart the    ***
 *** wavefunction from the file named: cp2k-RESTART.wfn. This file does    ***
 *** not exist. Please check the existence of the file or change properly  ***
 *** the value of the keyword WFN_RESTART_FILE_NAME. Calculation continues ***
 *** using ATOMIC GUESS.                                                   ***



 SCF WAVEFUNCTION OPTIMIZATION

  ----------------------------------- OT ---------------------------------------
  Minimizer      : CG                  : conjugate gradient
  Preconditioner : FULL_ALL            : diagonalization, state selective
  Precond_solver : DEFAULT
  Line search    : 2PNT                : 2 energies, one gradient
  stepsize       :    0.15000000                  energy_gap     :    0.08000000
  eps_taylor     :   0.10000E-15                  max_taylor     :             4
  ----------------------------------- OT ---------------------------------------

  Step     Update method      Time    Convergence         Total energy    Change
  ------------------------------------------------------------------------------
     1 OT CG       0.15E+00    0.2     0.25934795       -13.4574110687 -1.35E+01
     2 OT LS       0.75E-01    0.1                      -13.4764590924
     3 OT CG       0.75E-01    0.2     0.11387471       -14.7060961686 -1.25E+00
     4 OT LS       0.63E-01    0.1                      -14.8544204882
     5 OT CG       0.63E-01    0.2     0.07579513       -14.8610852911 -1.55E-01
     6 OT LS       0.55E-01    0.1                      -14.9212977530
     7 OT CG       0.55E-01    0.2     0.03681671       -14.9225895935 -6.15E-02
     8 OT LS       0.85E-01    0.1                      -14.9422174837
     9 OT CG       0.85E-01    0.2     0.01885237       -14.9449118824 -2.23E-02
    10 OT LS       0.80E-01    0.1                      -14.9504309757
    11 OT CG       0.80E-01    0.2     0.00933966       -14.9504454852 -5.53E-03
    12 OT LS       0.62E-01    0.1                      -14.9513978751
    13 OT CG       0.62E-01    0.2     0.00460401       -14.9514970709 -1.05E-03
    14 OT LS       0.64E-01    0.1                      -14.9517627210
    15 OT CG       0.64E-01    0.2     0.00227662       -14.9517631216 -2.66E-04
    16 OT LS       0.87E-01    0.1                      -14.9518453326
    17 OT CG       0.87E-01    0.2     0.00098793       -14.9518515218 -8.84E-05
    18 OT LS       0.72E-01    0.1                      -14.9518647113
    19 OT CG       0.72E-01    0.2     0.00062162       -14.9518653069 -1.38E-05
    20 OT LS       0.63E-01    0.1                      -14.9518699410
    21 OT CG       0.63E-01    0.2     0.00029147       -14.9518700493 -4.74E-06
    22 OT LS       0.10E+00    0.1                      -14.9518714792
    23 OT CG       0.10E+00    0.2     0.00012762       -14.9518717081 -1.66E-06
    24 OT LS       0.67E-01    0.1                      -14.9518718685
    25 OT CG       0.67E-01    0.2     0.00008484       -14.9518719207 -2.13E-07
    26 OT LS       0.72E-01    0.1                      -14.9518720217
    27 OT CG       0.72E-01    0.2     0.00003759       -14.9518720223 -1.02E-07
    28 OT LS       0.94E-01    0.1                      -14.9518720469
    29 OT CG       0.94E-01    0.2     0.00001789       -14.9518720484 -2.61E-08
    30 OT LS       0.61E-01    0.1                      -14.9518720511
    31 OT CG       0.61E-01    0.2     0.00001062       -14.9518720522 -3.82E-09
    32 OT LS       0.72E-01    0.1                      -14.9518720538
    33 OT CG       0.72E-01    0.2     0.00000440       -14.9518720538 -1.59E-09
    34 OT LS       0.97E-01    0.1                      -14.9518720542
    35 OT CG       0.97E-01    0.2     0.00000245       -14.9518720542 -3.67E-10
    36 OT LS       0.60E-01    0.1                      -14.9518720542
    37 OT CG       0.60E-01    0.2     0.00000136       -14.9518720543 -7.03E-11
    38 OT LS       0.75E-01    0.1                      -14.9518720543
    39 OT CG       0.75E-01    0.2     0.00000060       -14.9518720543 -2.74E-11

  *** SCF run converged in    39 steps ***


  Electronic density on regular grids:        -14.0000000000        0.0000000000
  Core density on regular grids:               13.9999999989       -0.0000000011
  Total charge density on r-space grids:       -0.0000000010
  Total charge density g-space grids:          -0.0000000010

  Overlap energy of the core charge distribution:               0.00000142319619
  Self energy of the core charge distribution:                -35.13285960674677
  Core Hamiltonian energy:                                     11.37719577099371
  Hartree energy:                                              14.45292958793669
  Exchange-correlation energy:                                 -5.64913922966019

  Total energy:                                               -14.95187205428037

  outer SCF iter =    1 RMS gradient =   0.60E-06 energy =        -14.9518720543
  outer SCF loop converged in   1 iterations or   39 steps


 ENERGY| Total FORCE_EVAL ( QS ) energy [a.u.]:              -14.951872054285909

 -------------------------------------------------------------------------------
 -                                                                             -
 -                                DBCSR STATISTICS                             -
 -                                                                             -
 -------------------------------------------------------------------------------
 COUNTER                                    TOTAL       BLAS       SMM       ACC
 flops     7 x     7 x     7               145432       0.0%    100.0%      0.0%
 flops     5 x    13 x     7               223860       0.0%    100.0%      0.0%
 flops    13 x     5 x     7               223860       0.0%    100.0%      0.0%
 flops     7 x     7 x    13               254800       0.0%    100.0%      0.0%
 flops    13 x    13 x     7               291018       0.0%    100.0%      0.0%
 flops     7 x     7 x     5               294000       0.0%    100.0%      0.0%
 flops     5 x     5 x     7               301350       0.0%    100.0%      0.0%
 flops    26 x     7 x     7               354172       0.0%    100.0%      0.0%
 flops    26 x     7 x    13               397488       0.0%    100.0%      0.0%
 flops    10 x     7 x     7               408660       0.0%    100.0%      0.0%
 flops    26 x     7 x     5               458640       0.0%    100.0%      0.0%
 flops    10 x     7 x    13               458640       0.0%    100.0%      0.0%
 flops    10 x     7 x     5               529200       0.0%    100.0%      0.0%
 flops    13 x     7 x    13               643552       0.0%    100.0%      0.0%
 flops    13 x     7 x     5               742560       0.0%    100.0%      0.0%
 flops     5 x     7 x    13               742560       0.0%    100.0%      0.0%
 flops     5 x     7 x     5               856800       0.0%    100.0%      0.0%
 flops inhomo. stacks                           0       0.0%      0.0%      0.0%
 flops total                         7.326592E+06       0.0%    100.0%      0.0%
 flops max/rank                      3.581662E+06       0.0%    100.0%      0.0%
 matmuls inhomo. stacks                         0       0.0%      0.0%      0.0%
 matmuls total                               8740       0.0%    100.0%      0.0%
 number of processed stacks                  6072       0.0%    100.0%      0.0%
 average stack size                                     0.0       1.4       0.0
 marketing flops                     8.092058E+06
 -------------------------------------------------------------------------------
 # multiplications                            603
 max memory usage/rank             178.348032E+06
 # max total images/rank                        3
 # max 3D layers                                1
 # MPI messages exchanged                  274968
 MPI messages size (bytes):
  total size                        21.378504E+06
  min size                           0.000000E+00
  max size                           2.704000E+03
  average size                      77.749062E+00
 MPI breakdown and total messages size (bytes):
             size <=      128              241877                        0
       128 < size <=     8192               33091                 21378504
      8192 < size <=    32768                   0                        0
     32768 < size <=   131072                   0                        0
    131072 < size <=  4194304                   0                        0
   4194304 < size <= 16777216                   0                        0
  16777216 < size                               0                        0
 -------------------------------------------------------------------------------

 *** WARNING in dbcsr_mm.F:294 :: Using a non-square number of MPI ranks ***
 *** might lead to poor performance. Used ranks: 24 Suggested: 25 49     ***

 -------------------------------------------------------------------------------
 -                                                                             -
 -                      DBCSR MESSAGE PASSING PERFORMANCE                      -
 -                                                                             -
 -------------------------------------------------------------------------------
 ROUTINE             CALLS      AVE VOLUME [Bytes]
 MP_Bcast               18                     12.
 MP_Allreduce         3092                      8.
 MP_Alltoall          2396                   1358.
 MP_ISend            25322                    162.
 MP_IRecv            25322                    108.
 -------------------------------------------------------------------------------

 -------------------------------------------------------------------------------
 -                                                                             -
 -                                GRID STATISTICS                              -
 -                                                                             -
 -------------------------------------------------------------------------------
 LP    KERNEL             BACKEND                              COUNT     PERCENT
 2     collocate ortho    REF                                  27040      38.37%
 3     collocate ortho    REF                                  15160      21.51%
 2     integrate ortho    REF                                  13520      19.18%
 3     integrate ortho    REF                                   7580      10.76%
 4     collocate ortho    REF                                   3760       5.34%
 4     integrate ortho    REF                                   1880       2.67%
 5     integrate ortho    REF                                    676       0.96%
 6     integrate ortho    REF                                    379       0.54%
 0     collocate general  REF                                    192       0.27%
 3     integrate general  REF                                    192       0.27%
 7     integrate ortho    REF                                     94       0.13%
 -------------------------------------------------------------------------------

 MEMORY| Estimated peak process memory [MiB]                                 171

 -------------------------------------------------------------------------------
 -                                                                             -
 -                         MESSAGE PASSING PERFORMANCE                         -
 -                                                                             -
 -------------------------------------------------------------------------------

 ROUTINE             CALLS      AVE VOLUME [Bytes]
 MP_Group                4
 MP_Bcast              725                 507300.
 MP_Allreduce         2150                    161.
 MP_Sync                88
 MP_Alltoall           584                2995466.
 MP_ISendRecv         4209                  53808.
 MP_Wait              6351
 MP_comm_split          42
 MP_ISend             1890                 171664.
 MP_IRecv             1890                 171403.
 MP_Recv                 6                    896.
 -------------------------------------------------------------------------------


 -------------------------------------------------------------------------------
 -                                                                             -
 -                           R E F E R E N C E S                               -
 -                                                                             -
 -------------------------------------------------------------------------------
 
 CP2K version 8.2, the CP2K developers group (2021).
 CP2K is freely available from https://www.cp2k.org/ .

 Kuehne,Thomas D.; Iannuzzi,Marcella; Del Ben,Mauro;
 Rybkin,Vladimir V.; Seewald,Patrick; Stein,Frederick; Laino,Teodoro;
 Khaliullin,Rustam Z.; Schuett,Ole; Schiffmann,Florian; Golze,Dorothea;
 Wilhelm,Jan; Chulkov,Sergey; Bani-Hashemian,Mohammad Hossein;
 Weber,Valery; Borstnik,Urban; Taillefumier,Mathieu;
 Jakobovits,Alice Shoshana; Lazzaro,Alfio; Pabst,Hans; Mueller,Tiziano;
 Schade,Robert; Guidon,Manuel; Andermatt,Samuel; Holmberg,Nico;
 Schenter,Gregory K.; Hehn,Anna; Bussy,Augustin; Belleflamme,Fabian;
 Tabacchi,Gloria; Gloess,Andreas; Lass,Michael; Bethune,Iain;
 Mundy,Christopher J.; Plessl,Christian; Watkins,Matt;
 VandeVondele,Joost; Krack,Matthias; Hutter,Juerg. 
 The Journal of Chemical Physics, 152 (19), (2020). 
 CP2K: An electronic structure and molecular dynamics software package -
 Quickstep: Efficient and accurate electronic structure calculations.
 https://doi.org/10.1063/5.0007045

 Schuett, Ole; Messmer, Peter; Hutter, Juerg; VandeVondele, Joost. 
 Electronic Structure Calculations on Graphics Processing Units, John
 Wiley & Sons, Ltd, 173-190 (2016). 
 GPU-Accelerated Sparse Matrix-Matrix Multiplication for
 Linear Scaling Density Functional Theory.
 https://doi.org/10.1002/9781118670712.ch8

 Heinecke, A; Henry, G; Hutchinson, M; Pabst, H. 
 Proceedings of Intl. Supercomputing Conference, 981-991 (2016). 
 LIBXSMM: Accelerating Small Matrix Multiplications
 by Runtime Code Generation.
 https://doi.org/10.1109/SC.2016.83

 Borstnik, U; VandeVondele, J; Weber, V; Hutter, J. 
 PARALLEL COMPUTING, 40 (5-6), 47-58 (2014). 
 Sparse matrix multiplication: The distributed block-compressed sparse
 row library.
 https://doi.org/10.1016/j.parco.2014.03.012

 Hutter, J; Iannuzzi, M; Schiffmann, F; VandeVondele, J. 
 WIREs Comput Mol Sci., 4 (1), 15-25 (2014). 
 CP2K: atomistic simulations of condensed matter systems.
 https://doi.org/10.1002/wcms.1159

 Marek, A; Blum, V; Johanni, R; Havu, V; Lang, B; Auckenthaler, T;
 Heinecke, A; Bungartz, H; Lederer, H. 
 Journal of Physics: Condensed Matter, 26 (21), (2014). 
 The ELPA library: scalable parallel eigenvalue solutions for
 electronic structure
 theory and computational science.
 https://doi.org/10.1088/0953-8984/26/21/213201

 VandeVondele, J; Hutter, J. 
 JOURNAL OF CHEMICAL PHYSICS, 127 (11), 114105 (2007). 
 Gaussian basis sets for accurate calculations on molecular systems in
 gas and condensed phases.
 https://doi.org/10.1063/1.2770708

 Krack, M. 
 THEORETICAL CHEMISTRY ACCOUNTS, 114 (1-3), 145-152 (2005). 
 Pseudopotentials for H to Kr optimized for gradient-corrected
 exchange-correlation functionals.
 https://doi.org/10.1007/s00214-005-0655-y

 VandeVondele, J; Krack, M; Mohamed, F; Parrinello, M; Chassaing, T;
 Hutter, J. COMPUTER PHYSICS COMMUNICATIONS, 167 (2), 103-128 (2005). 
 QUICKSTEP: Fast and accurate density functional calculations using a
 mixed Gaussian and plane waves approach.
 https://doi.org/10.1016/j.cpc.2004.12.014

 Frigo, M; Johnson, SG. 
 PROCEEDINGS OF THE IEEE, 93 (2), 216-231 (2005). 
 The design and implementation of FFTW3.
 https://doi.org/10.1109/JPROC.2004.840301

 VandeVondele, J; Hutter, J. 
 JOURNAL OF CHEMICAL PHYSICS, 118 (10), 4365-4369 (2003). 
 An efficient orbital transformation method for electronic structure
 calculations.
 https://doi.org/10.1063/1.1543154

 Hartwigsen, C; Goedecker, S; Hutter, J. 
 PHYSICAL REVIEW B, 58 (7), 3641-3662 (1998). 
 Relativistic separable dual-space Gaussian pseudopotentials from H to Rn.
 https://doi.org/10.1103/PhysRevB.58.3641

 Lippert, G; Hutter, J; Parrinello, M. 
 MOLECULAR PHYSICS, 92 (3), 477-487 (1997). 
 A hybrid Gaussian and plane wave density functional scheme.
 https://doi.org/10.1080/002689797170220

 Perdew, JP; Burke, K; Ernzerhof, M. 
 PHYSICAL REVIEW LETTERS, 77 (18), 3865-3868 (1996). 
 Generalized gradient approximation made simple.
 https://doi.org/10.1103/PhysRevLett.77.3865

 Goedecker, S; Teter, M; Hutter, J. 
 PHYSICAL REVIEW B, 54 (3), 1703-1710 (1996). 
 Separable dual-space Gaussian pseudopotentials.
 https://doi.org/10.1103/PhysRevB.54.1703


 -------------------------------------------------------------------------------
 -                                                                             -
 -                                T I M I N G                                  -
 -                                                                             -
 -------------------------------------------------------------------------------
 SUBROUTINE                       CALLS  ASD         SELF TIME        TOTAL TIME
                                MAXIMUM       AVERAGE  MAXIMUM  AVERAGE  MAXIMUM
 CP2K                                 1  1.0    0.005    0.013    6.507    6.508
 qs_forces                            1  2.0    0.000    0.000    6.401    6.402
 qs_energies                          1  3.0    0.000    0.000    6.223    6.224
 scf_env_do_scf                       1  4.0    0.000    0.000    6.130    6.130
 scf_env_do_scf_inner_loop           39  5.0    0.001    0.003    5.979    5.980
 rebuild_ks_matrix                   40  6.9    0.000    0.000    4.121    4.122
 qs_ks_build_kohn_sham_matrix        40  7.9    0.004    0.004    4.120    4.122
 qs_ks_update_qs_env                 40  6.0    0.000    0.000    3.951    3.952
 qs_vxc_create                       40  8.9    0.000    0.000    3.144    3.148
 pw_transfer                        590 10.4    0.025    0.028    2.912    3.096
 fft_wrap_pw1pw2                    510 11.5    0.004    0.004    2.869    3.054
 fft_wrap_pw1pw2_200                327 12.7    0.166    0.180    2.735    2.918
 fft3d_ps                           510 13.5    1.331    1.522    2.330    2.514
 xc_rho_set_and_dset_create          40 10.9    0.015    0.017    2.097    2.404
 xc_vxc_pw_create                    21  9.9    0.035    0.040    1.997    2.001
 qs_rho_update_rho                   40  6.0    0.000    0.000    1.597    1.597
 calculate_rho_elec                  40  7.0    0.022    0.024    1.597    1.597
 density_rs2pw                       40  8.0    0.001    0.002    1.341    1.408
 xc_functional_eval                  40 11.9    0.000    0.000    0.978    1.279
 pbe_lda_eval                        40 12.9    0.978    1.278    0.978    1.278
 xc_exc_calc                         19 10.0    0.008    0.009    1.146    1.147
 mp_alltoall_z22v                   510 15.5    0.794    1.011    0.794    1.011
 rs_pw_transfer                     246 10.0    0.002    0.003    0.900    0.942
 yz_to_x                            245 13.7    0.060    0.071    0.482    0.690
 sum_up_and_integrate                21  8.9    0.004    0.004    0.651    0.652
 integrate_v_rspace                  21  9.9    0.000    0.000    0.647    0.648
 x_to_yz                            265 15.1    0.139    0.158    0.511    0.608
 qs_scf_new_mos                      39  6.0    0.000    0.000    0.587    0.588
 qs_scf_loop_do_ot                   39  7.0    0.000    0.000    0.587    0.588
 ot_scf_mini                         39  8.0    0.000    0.000    0.553    0.554
 potential_pw2rs                     21 10.9    0.001    0.001    0.489    0.490
 dbcsr_multiply_generic             603 10.9    0.014    0.016    0.481    0.487
 rs_pw_transfer_RS2PW_200            41 10.0    0.181    0.195    0.431    0.473
 mp_sum_d                          1120  7.9    0.233    0.407    0.233    0.407
 grid_collocate_task_list            40  8.0    0.196    0.394    0.196    0.394
 mp_waitany                        1890 11.9    0.284    0.338    0.284    0.338
 ot_mini                             39  9.0    0.000    0.000    0.247    0.247
 mp_waitall_1                     38229 14.7    0.203    0.225    0.203    0.225
 qs_ot_get_p                         40  8.9    0.000    0.000    0.218    0.220
 qs_ot_get_derivative                20 10.0    0.000    0.000    0.206    0.207
 pw_scatter_p                       265 14.1    0.192    0.195    0.192    0.195
 multiply_cannon                    603 11.9    0.029    0.031    0.182    0.193
 rs_pw_transfer_PW2RS_200            22 12.6    0.101    0.107    0.181    0.187
 make_m2s                          1206 11.9    0.012    0.013    0.179    0.186
 pw_gather_p                        245 12.7    0.167    0.174    0.167    0.174
 qs_ks_update_qs_env_forces           1  3.0    0.000    0.000    0.171    0.171
 mp_alltoall_d11v                   620 13.0    0.135    0.157    0.135    0.157
 grid_integrate_task_list            21 10.9    0.037    0.154    0.037    0.154
 qs_ot_get_derivative_diag           19 11.0    0.000    0.000    0.153    0.153
 qs_ot_p2m_diag                      39 10.0    0.001    0.001    0.151    0.152
 init_scf_loop                        1  5.0    0.000    0.000    0.149    0.149
 rs_gather_matrices                  21 10.9    0.000    0.000    0.120    0.142
 rs_pw_transfer_RS2PW_70             40 10.0    0.041    0.043    0.131    0.138
 -------------------------------------------------------------------------------

 The number of warnings for this run is : 2
 
 -------------------------------------------------------------------------------
  **** **** ******  **  PROGRAM ENDED AT                 2021-10-27 15:11:04.702
 ***** ** ***  *** **   PROGRAM RAN ON                                    node10
 **    ****   ******    PROGRAM RAN BY                                   lujunbo
 ***** **    ** ** **   PROGRAM PROCESS ID                                326058
  **** **  *******  **  PROGRAM STOPPED IN /home/lujunbo/WORK/deepmd/c2h6/mtd/tr
                                           ain_4_sys/cp2k_md/sys_4/data/task_231
                                           5
