 DBCSR| CPU Multiplication driver                                           XSMM
 DBCSR| Multrec recursion limit                                              512
 DBCSR| Multiplication stack size                                           1000
 DBCSR| Maximum elements for images                                    UNLIMITED
 DBCSR| Multiplicative factor virtual images                                   1
 DBCSR| Use multiplication densification                                       T
 DBCSR| Multiplication size stacks                                             3
 DBCSR| Use memory pool for CPU allocation                                     F
 DBCSR| Number of 3D layers                                               SINGLE
 DBCSR| Use MPI memory allocation                                              F
 DBCSR| Use RMA algorithm                                                      F
 DBCSR| Use Communication thread                                               T
 DBCSR| Communication thread load                                             87
 DBCSR| MPI: My node id                                                        0
 DBCSR| MPI: Number of nodes                                                  24
 DBCSR| OMP: Current number of threads                                         1
 DBCSR| OMP: Max number of threads                                             1
 DBCSR| Split modifier for TAS multiplication algorithm                  1.0E+00


  **** **** ******  **  PROGRAM STARTED AT               2021-10-27 11:33:37.128
 ***** ** ***  *** **   PROGRAM STARTED ON                                node10
 **    ****   ******    PROGRAM STARTED BY                               lujunbo
 ***** **    ** ** **   PROGRAM PROCESS ID                                183964
  **** **  *******  **  PROGRAM STARTED IN /home/lujunbo/WORK/deepmd/c2h6/mtd/tr
                                           ain_4_sys/cp2k_md/sys_4/data/task_480

 CP2K| version string:                                          CP2K version 8.2
 CP2K| source code revision number:                                  git:310b7ab
 CP2K| cp2kflags: omp libint fftw3 libxc elpa parallel mpi3 scalapack xsmm plume
 CP2K|            d2 spglib mkl libvori libbqb
 CP2K| is freely available from                            https://www.cp2k.org/
 CP2K| Program compiled at                          Tue Jun  1 15:18:23 CST 2021
 CP2K| Program compiled on                                                   mgr
 CP2K| Program compiled for                                                local
 CP2K| Data directory path                       /home/lujunbo/bin/cp2k-8.2/data
 CP2K| Input file name                                                 input.inp

 GLOBAL| Force Environment number                                              1
 GLOBAL| Basis set file name            /home/lujunbo/bin/cp2k-8.2/data/BASIS_MO
 GLOBAL| Potential file name            /home/lujunbo/bin/cp2k-8.2/data/POTENTIA
 GLOBAL| MM Potential file name                                     MM_POTENTIAL
 GLOBAL| Coordinate file name                                      __STD_INPUT__
 GLOBAL| Method name                                                        CP2K
 GLOBAL| Project name                                                       cp2k
 GLOBAL| Run type                                                   ENERGY_FORCE
 GLOBAL| FFT library                                                       FFTW3
 GLOBAL| Diagonalization library                                            ELPA
 GLOBAL| Minimum number of eigenvectors for ELPA usage                        16
 GLOBAL| Orthonormality check for eigenvectors                          DISABLED
 GLOBAL| Matrix multiplication library                                    SCALAP
 GLOBAL| All-to-all communication in single precision                          F
 GLOBAL| FFTs using library dependent lengths                                  F
 GLOBAL| Grid backend                                                       AUTO
 GLOBAL| Global print level                                                  LOW
 GLOBAL| MPI I/O enabled                                                       T
 GLOBAL| Total number of message passing processes                            24
 GLOBAL| Number of threads for this process                                    1
 GLOBAL| This output is from process                                           0
 GLOBAL| CPU model name             Intel(R) Xeon(R) Platinum 9242 CPU @ 2.30GHz
 GLOBAL| CPUID                                                              1003

 MEMORY| system memory details [Kb]
 MEMORY|                        rank 0           min           max       average
 MEMORY| MemTotal            394609400     394609400     394609400     394609400
 MEMORY| MemFree             295994072     295993872     295994072     295993963
 MEMORY| Buffers                177568        177568        177568        177568
 MEMORY| Cached               62435340      62435340      62435348      62435344
 MEMORY| Slab                  1271756       1271756       1271756       1271756
 MEMORY| SReclaimable           581624        581624        581624        581624
 MEMORY| MemLikelyFree       359188604     359188412     359188604     359188500


 GENERATE|  Preliminary Number of Bonds generated:                             0
 GENERATE|  Achieved consistency in connectivity generation.

 *******************************************************************************
 *******************************************************************************
 **                                                                           **
 **     #####                         ##              ##                      **
 **    ##   ##            ##          ##              ##                      **
 **   ##     ##                       ##            ######                    **
 **   ##     ##  ##   ##  ##   #####  ##  ##   ####   ##    #####    #####    **
 **   ##     ##  ##   ##  ##  ##      ## ##   ##      ##   ##   ##  ##   ##   **
 **   ##  ## ##  ##   ##  ##  ##      ####     ###    ##   ######   ######    **
 **    ##  ###   ##   ##  ##  ##      ## ##      ##   ##   ##       ##        **
 **     #######   #####   ##   #####  ##  ##  ####    ##    #####   ##        **
 **           ##                                                    ##        **
 **                                                                           **
 **                                                ... make the atoms dance   **
 **                                                                           **
 **            Copyright (C) by CP2K developers group (2000-2021)             **
 **                      J. Chem. Phys. 152, 194103 (2020)                    **
 **                                                                           **
 *******************************************************************************


 TOTAL NUMBERS AND MAXIMUM NUMBERS

  Total number of            - Atomic kinds:                                   2
                             - Atoms:                                          8
                             - Shell sets:                                     8
                             - Shells:                                        28
                             - Primitive Cartesian functions:                 40
                             - Cartesian basis functions:                     58
                             - Spherical basis functions:                     56

  Maximum angular momentum of- Orbital basis functions:                        2
                             - Local part of the GTH pseudopotential:          2
                             - Non-local part of the GTH pseudopotential:      0


 SCF PARAMETERS         Density guess:                                   RESTART
                        --------------------------------------------------------
                        max_scf:                                             100
                        max_scf_history:                                       0
                        max_diis:                                              4
                        --------------------------------------------------------
                        eps_scf:                                        1.00E-06
                        eps_scf_history:                                0.00E+00
                        eps_diis:                                       1.00E-01
                        eps_eigval:                                     1.00E-05
                        --------------------------------------------------------
                        level_shift [a.u.]:                                 0.00
                        --------------------------------------------------------
                        Outer loop SCF in use 
                        No variables optimised in outer loop
                        eps_scf                                         1.00E-06
                        max_scf                                                6
                        No outer loop optimization
                        step_size                                       5.00E-01

 Number of electrons:                                                         14
 Number of occupied orbitals:                                                  7
 Number of molecular orbitals:                                                 7

 Number of orbital functions:                                                 56
 Number of independent orbital functions:                                     56

 Extrapolation method: initial_guess

 *** WARNING in qs_initial_guess.F:309 :: User requested to restart the    ***
 *** wavefunction from the file named: cp2k-RESTART.wfn. This file does    ***
 *** not exist. Please check the existence of the file or change properly  ***
 *** the value of the keyword WFN_RESTART_FILE_NAME. Calculation continues ***
 *** using ATOMIC GUESS.                                                   ***



 SCF WAVEFUNCTION OPTIMIZATION

  ----------------------------------- OT ---------------------------------------
  Minimizer      : CG                  : conjugate gradient
  Preconditioner : FULL_ALL            : diagonalization, state selective
  Precond_solver : DEFAULT
  Line search    : 2PNT                : 2 energies, one gradient
  stepsize       :    0.15000000                  energy_gap     :    0.08000000
  eps_taylor     :   0.10000E-15                  max_taylor     :             4
  ----------------------------------- OT ---------------------------------------

  Step     Update method      Time    Convergence         Total energy    Change
  ------------------------------------------------------------------------------
     1 OT CG       0.15E+00    0.2     0.25776809       -13.2585431598 -1.33E+01
     2 OT LS       0.92E-01    0.1                      -13.9753262664
     3 OT CG       0.92E-01    0.2     0.16035474       -14.5411214173 -1.28E+00
     4 OT LS       0.48E-01    0.1                      -14.5891254952
     5 OT CG       0.48E-01    0.2     0.10396674       -14.7843598025 -2.43E-01
     6 OT LS       0.67E-01    0.1                      -14.9148665342
     7 OT CG       0.67E-01    0.2     0.03227246       -14.9235784453 -1.39E-01
     8 OT LS       0.10E+00    0.1                      -14.9408792485
     9 OT CG       0.10E+00    0.2     0.01743853       -14.9431433968 -1.96E-02
    10 OT LS       0.72E-01    0.1                      -14.9467167166
    11 OT CG       0.72E-01    0.2     0.00918484       -14.9474448827 -4.30E-03
    12 OT LS       0.85E-01    0.1                      -14.9488228169
    13 OT CG       0.85E-01    0.2     0.00386332       -14.9488576614 -1.41E-03
    14 OT LS       0.89E-01    0.1                      -14.9491187471
    15 OT CG       0.89E-01    0.2     0.00185989       -14.9491192663 -2.62E-04
    16 OT LS       0.78E-01    0.1                      -14.9491713628
    17 OT CG       0.78E-01    0.2     0.00087325       -14.9491724222 -5.32E-05
    18 OT LS       0.78E-01    0.1                      -14.9491840649
    19 OT CG       0.78E-01    0.2     0.00046226       -14.9491840653 -1.16E-05
    20 OT LS       0.96E-01    0.1                      -14.9491879484
    21 OT CG       0.96E-01    0.2     0.00019982       -14.9491880940 -4.03E-06
    22 OT LS       0.92E-01    0.1                      -14.9491888103
    23 OT CG       0.92E-01    0.2     0.00011732       -14.9491888120 -7.18E-07
    24 OT LS       0.76E-01    0.1                      -14.9491890099
    25 OT CG       0.76E-01    0.3     0.00005683       -14.9491890182 -2.06E-07
    26 OT LS       0.94E-01    0.1                      -14.9491890757
    27 OT CG       0.94E-01    0.3     0.00002786       -14.9491890779 -5.97E-08
    28 OT LS       0.82E-01    0.1                      -14.9491890901
    29 OT CG       0.82E-01    0.3     0.00001310       -14.9491890904 -1.25E-08
    30 OT LS       0.91E-01    0.2                      -14.9491890934
    31 OT CG       0.91E-01    0.2     0.00000770       -14.9491890934 -3.07E-09
    32 OT LS       0.78E-01    0.1                      -14.9491890943
    33 OT CG       0.78E-01    0.2     0.00000352       -14.9491890943 -9.05E-10
    34 OT LS       0.93E-01    0.1                      -14.9491890946
    35 OT CG       0.93E-01    0.3     0.00000167       -14.9491890946 -2.26E-10
    36 OT LS       0.86E-01    0.1                      -14.9491890946
    37 OT CG       0.86E-01    0.2     0.00000089       -14.9491890946 -4.69E-11

  *** SCF run converged in    37 steps ***


  Electronic density on regular grids:        -14.0000000000        0.0000000000
  Core density on regular grids:               13.9999999989       -0.0000000011
  Total charge density on r-space grids:       -0.0000000010
  Total charge density g-space grids:          -0.0000000010

  Overlap energy of the core charge distribution:               0.00000116257553
  Self energy of the core charge distribution:                -35.13285960674677
  Core Hamiltonian energy:                                     11.36398061441521
  Hartree energy:                                              14.46310348668892
  Exchange-correlation energy:                                 -5.64341475154244

  Total energy:                                               -14.94918909460955

  outer SCF iter =    1 RMS gradient =   0.89E-06 energy =        -14.9491890946
  outer SCF loop converged in   1 iterations or   37 steps


 ENERGY| Total FORCE_EVAL ( QS ) energy [a.u.]:              -14.949189094622417

 -------------------------------------------------------------------------------
 -                                                                             -
 -                                DBCSR STATISTICS                             -
 -                                                                             -
 -------------------------------------------------------------------------------
 COUNTER                                    TOTAL       BLAS       SMM       ACC
 flops     7 x     7 x     7               137886       0.0%    100.0%      0.0%
 flops     5 x    13 x     7               212940       0.0%    100.0%      0.0%
 flops    13 x     5 x     7               212940       0.0%    100.0%      0.0%
 flops     7 x     7 x    13               242060       0.0%    100.0%      0.0%
 flops    13 x    13 x     7               276822       0.0%    100.0%      0.0%
 flops     7 x     7 x     5               279300       0.0%    100.0%      0.0%
 flops     5 x     5 x     7               286650       0.0%    100.0%      0.0%
 flops    26 x     7 x     7               336336       0.0%    100.0%      0.0%
 flops    26 x     7 x    13               378560       0.0%    100.0%      0.0%
 flops    10 x     7 x     7               388080       0.0%    100.0%      0.0%
 flops    26 x     7 x     5               436800       0.0%    100.0%      0.0%
 flops    10 x     7 x    13               436800       0.0%    100.0%      0.0%
 flops    10 x     7 x     5               504000       0.0%    100.0%      0.0%
 flops    13 x     7 x    13               615160       0.0%    100.0%      0.0%
 flops    13 x     7 x     5               709800       0.0%    100.0%      0.0%
 flops     5 x     7 x    13               709800       0.0%    100.0%      0.0%
 flops     5 x     7 x     5               819000       0.0%    100.0%      0.0%
 flops inhomo. stacks                           0       0.0%      0.0%      0.0%
 flops total                         6.982934E+06       0.0%    100.0%      0.0%
 flops max/rank                      3.412724E+06       0.0%    100.0%      0.0%
 matmuls inhomo. stacks                         0       0.0%      0.0%      0.0%
 matmuls total                               8333       0.0%    100.0%      0.0%
 number of processed stacks                  5785       0.0%    100.0%      0.0%
 average stack size                                     0.0       1.4       0.0
 marketing flops                     7.711327E+06
 -------------------------------------------------------------------------------
 # multiplications                            573
 max memory usage/rank             177.860608E+06
 # max total images/rank                        3
 # max 3D layers                                1
 # MPI messages exchanged                  261288
 MPI messages size (bytes):
  total size                        20.376160E+06
  min size                           0.000000E+00
  max size                           2.704000E+03
  average size                      77.983528E+00
 MPI breakdown and total messages size (bytes):
             size <=      128              229762                        0
       128 < size <=     8192               31526                 20376160
      8192 < size <=    32768                   0                        0
     32768 < size <=   131072                   0                        0
    131072 < size <=  4194304                   0                        0
   4194304 < size <= 16777216                   0                        0
  16777216 < size                               0                        0
 -------------------------------------------------------------------------------

 *** WARNING in dbcsr_mm.F:294 :: Using a non-square number of MPI ranks ***
 *** might lead to poor performance. Used ranks: 24 Suggested: 25 49     ***

 -------------------------------------------------------------------------------
 -                                                                             -
 -                      DBCSR MESSAGE PASSING PERFORMANCE                      -
 -                                                                             -
 -------------------------------------------------------------------------------
 ROUTINE             CALLS      AVE VOLUME [Bytes]
 MP_Bcast               18                     12.
 MP_Allreduce         2940                      8.
 MP_Alltoall          2291                   1363.
 MP_ISend            24062                    162.
 MP_IRecv            24062                    109.
 -------------------------------------------------------------------------------

 -------------------------------------------------------------------------------
 -                                                                             -
 -                                GRID STATISTICS                              -
 -                                                                             -
 -------------------------------------------------------------------------------
 LP    KERNEL             BACKEND                              COUNT     PERCENT
 2     collocate ortho    REF                                  25422      38.16%
 3     collocate ortho    REF                                  14402      21.62%
 2     integrate ortho    REF                                  12711      19.08%
 3     integrate ortho    REF                                   7201      10.81%
 4     collocate ortho    REF                                   3572       5.36%
 4     integrate ortho    REF                                   1786       2.68%
 5     integrate ortho    REF                                    669       1.00%
 6     integrate ortho    REF                                    379       0.57%
 0     collocate general  REF                                    192       0.29%
 3     integrate general  REF                                    192       0.29%
 7     integrate ortho    REF                                     94       0.14%
 -------------------------------------------------------------------------------

 MEMORY| Estimated peak process memory [MiB]                                 170

 -------------------------------------------------------------------------------
 -                                                                             -
 -                         MESSAGE PASSING PERFORMANCE                         -
 -                                                                             -
 -------------------------------------------------------------------------------

 ROUTINE             CALLS      AVE VOLUME [Bytes]
 MP_Group                4
 MP_Bcast              697                 527654.
 MP_Allreduce         2075                    166.
 MP_Sync                84
 MP_Alltoall           556                2992196.
 MP_ISendRecv         4002                  53808.
 MP_Wait              6042
 MP_comm_split          40
 MP_ISend             1800                 171663.
 MP_IRecv             1800                 171403.
 MP_Recv                 6                    896.
 -------------------------------------------------------------------------------


 -------------------------------------------------------------------------------
 -                                                                             -
 -                           R E F E R E N C E S                               -
 -                                                                             -
 -------------------------------------------------------------------------------
 
 CP2K version 8.2, the CP2K developers group (2021).
 CP2K is freely available from https://www.cp2k.org/ .

 Kuehne,Thomas D.; Iannuzzi,Marcella; Del Ben,Mauro;
 Rybkin,Vladimir V.; Seewald,Patrick; Stein,Frederick; Laino,Teodoro;
 Khaliullin,Rustam Z.; Schuett,Ole; Schiffmann,Florian; Golze,Dorothea;
 Wilhelm,Jan; Chulkov,Sergey; Bani-Hashemian,Mohammad Hossein;
 Weber,Valery; Borstnik,Urban; Taillefumier,Mathieu;
 Jakobovits,Alice Shoshana; Lazzaro,Alfio; Pabst,Hans; Mueller,Tiziano;
 Schade,Robert; Guidon,Manuel; Andermatt,Samuel; Holmberg,Nico;
 Schenter,Gregory K.; Hehn,Anna; Bussy,Augustin; Belleflamme,Fabian;
 Tabacchi,Gloria; Gloess,Andreas; Lass,Michael; Bethune,Iain;
 Mundy,Christopher J.; Plessl,Christian; Watkins,Matt;
 VandeVondele,Joost; Krack,Matthias; Hutter,Juerg. 
 The Journal of Chemical Physics, 152 (19), (2020). 
 CP2K: An electronic structure and molecular dynamics software package -
 Quickstep: Efficient and accurate electronic structure calculations.
 https://doi.org/10.1063/5.0007045

 Schuett, Ole; Messmer, Peter; Hutter, Juerg; VandeVondele, Joost. 
 Electronic Structure Calculations on Graphics Processing Units, John
 Wiley & Sons, Ltd, 173-190 (2016). 
 GPU-Accelerated Sparse Matrix-Matrix Multiplication for
 Linear Scaling Density Functional Theory.
 https://doi.org/10.1002/9781118670712.ch8

 Heinecke, A; Henry, G; Hutchinson, M; Pabst, H. 
 Proceedings of Intl. Supercomputing Conference, 981-991 (2016). 
 LIBXSMM: Accelerating Small Matrix Multiplications
 by Runtime Code Generation.
 https://doi.org/10.1109/SC.2016.83

 Borstnik, U; VandeVondele, J; Weber, V; Hutter, J. 
 PARALLEL COMPUTING, 40 (5-6), 47-58 (2014). 
 Sparse matrix multiplication: The distributed block-compressed sparse
 row library.
 https://doi.org/10.1016/j.parco.2014.03.012

 Hutter, J; Iannuzzi, M; Schiffmann, F; VandeVondele, J. 
 WIREs Comput Mol Sci., 4 (1), 15-25 (2014). 
 CP2K: atomistic simulations of condensed matter systems.
 https://doi.org/10.1002/wcms.1159

 Marek, A; Blum, V; Johanni, R; Havu, V; Lang, B; Auckenthaler, T;
 Heinecke, A; Bungartz, H; Lederer, H. 
 Journal of Physics: Condensed Matter, 26 (21), (2014). 
 The ELPA library: scalable parallel eigenvalue solutions for
 electronic structure
 theory and computational science.
 https://doi.org/10.1088/0953-8984/26/21/213201

 VandeVondele, J; Hutter, J. 
 JOURNAL OF CHEMICAL PHYSICS, 127 (11), 114105 (2007). 
 Gaussian basis sets for accurate calculations on molecular systems in
 gas and condensed phases.
 https://doi.org/10.1063/1.2770708

 Krack, M. 
 THEORETICAL CHEMISTRY ACCOUNTS, 114 (1-3), 145-152 (2005). 
 Pseudopotentials for H to Kr optimized for gradient-corrected
 exchange-correlation functionals.
 https://doi.org/10.1007/s00214-005-0655-y

 VandeVondele, J; Krack, M; Mohamed, F; Parrinello, M; Chassaing, T;
 Hutter, J. COMPUTER PHYSICS COMMUNICATIONS, 167 (2), 103-128 (2005). 
 QUICKSTEP: Fast and accurate density functional calculations using a
 mixed Gaussian and plane waves approach.
 https://doi.org/10.1016/j.cpc.2004.12.014

 Frigo, M; Johnson, SG. 
 PROCEEDINGS OF THE IEEE, 93 (2), 216-231 (2005). 
 The design and implementation of FFTW3.
 https://doi.org/10.1109/JPROC.2004.840301

 VandeVondele, J; Hutter, J. 
 JOURNAL OF CHEMICAL PHYSICS, 118 (10), 4365-4369 (2003). 
 An efficient orbital transformation method for electronic structure
 calculations.
 https://doi.org/10.1063/1.1543154

 Hartwigsen, C; Goedecker, S; Hutter, J. 
 PHYSICAL REVIEW B, 58 (7), 3641-3662 (1998). 
 Relativistic separable dual-space Gaussian pseudopotentials from H to Rn.
 https://doi.org/10.1103/PhysRevB.58.3641

 Lippert, G; Hutter, J; Parrinello, M. 
 MOLECULAR PHYSICS, 92 (3), 477-487 (1997). 
 A hybrid Gaussian and plane wave density functional scheme.
 https://doi.org/10.1080/002689797170220

 Perdew, JP; Burke, K; Ernzerhof, M. 
 PHYSICAL REVIEW LETTERS, 77 (18), 3865-3868 (1996). 
 Generalized gradient approximation made simple.
 https://doi.org/10.1103/PhysRevLett.77.3865

 Goedecker, S; Teter, M; Hutter, J. 
 PHYSICAL REVIEW B, 54 (3), 1703-1710 (1996). 
 Separable dual-space Gaussian pseudopotentials.
 https://doi.org/10.1103/PhysRevB.54.1703


 -------------------------------------------------------------------------------
 -                                                                             -
 -                                T I M I N G                                  -
 -                                                                             -
 -------------------------------------------------------------------------------
 SUBROUTINE                       CALLS  ASD         SELF TIME        TOTAL TIME
                                MAXIMUM       AVERAGE  MAXIMUM  AVERAGE  MAXIMUM
 CP2K                                 1  1.0    0.007    0.015    7.148    7.150
 qs_forces                            1  2.0    0.000    0.000    7.032    7.032
 qs_energies                          1  3.0    0.000    0.000    6.845    6.845
 scf_env_do_scf                       1  4.0    0.000    0.000    6.737    6.737
 scf_env_do_scf_inner_loop           37  5.0    0.001    0.004    6.558    6.558
 rebuild_ks_matrix                   38  6.9    0.000    0.000    4.634    4.635
 qs_ks_build_kohn_sham_matrix        38  7.9    0.004    0.004    4.634    4.635
 qs_ks_update_qs_env                 38  6.0    0.000    0.000    4.457    4.458
 pw_transfer                        561 10.4    0.025    0.028    3.419    3.588
 qs_vxc_create                       38  8.9    0.000    0.000    3.537    3.543
 fft_wrap_pw1pw2                    485 11.5    0.004    0.004    3.371    3.540
 fft_wrap_pw1pw2_200                311 12.7    0.181    0.194    3.207    3.379
 fft3d_ps                           485 13.5    1.432    1.586    2.790    2.958
 xc_rho_set_and_dset_create          38 10.9    0.016    0.017    2.320    2.611
 xc_vxc_pw_create                    20  9.8    0.036    0.042    2.287    2.293
 qs_rho_update_rho                   38  6.0    0.000    0.000    1.683    1.684
 calculate_rho_elec                  38  7.0    0.021    0.024    1.683    1.684
 density_rs2pw                       38  8.0    0.002    0.002    1.421    1.476
 mp_alltoall_z22v                   485 15.5    1.129    1.353    1.129    1.353
 xc_functional_eval                  38 11.9    0.000    0.000    1.006    1.288
 pbe_lda_eval                        38 12.9    1.006    1.288    1.006    1.288
 xc_exc_calc                         18 10.0    0.008    0.009    1.249    1.249
 rs_pw_transfer                     234 10.0    0.003    0.003    0.933    0.972
 x_to_yz                            252 15.1    0.151    0.179    0.769    0.786
 yz_to_x                            233 13.7    0.070    0.084    0.582    0.785
 sum_up_and_integrate                20  8.8    0.004    0.004    0.718    0.718
 integrate_v_rspace                  20  9.8    0.000    0.000    0.714    0.714
 qs_scf_new_mos                      37  6.0    0.000    0.000    0.607    0.608
 qs_scf_loop_do_ot                   37  7.0    0.000    0.000    0.607    0.608
 ot_scf_mini                         37  8.0    0.000    0.001    0.573    0.574
 potential_pw2rs                     20 10.8    0.001    0.001    0.553    0.554
 dbcsr_multiply_generic             573 10.9    0.015    0.017    0.487    0.493
 rs_pw_transfer_RS2PW_200            39  9.9    0.192    0.202    0.440    0.479
 grid_collocate_task_list            38  8.0    0.206    0.409    0.206    0.409
 mp_sum_d                          1087  7.8    0.225    0.395    0.225    0.395
 mp_waitany                        1800 11.9    0.285    0.334    0.285    0.334
 ot_mini                             37  9.0    0.000    0.000    0.265    0.266
 mp_waitall_1                     36330 14.7    0.200    0.232    0.200    0.232
 qs_ot_get_derivative                19 10.0    0.000    0.000    0.224    0.225
 qs_ot_get_p                         38  8.9    0.000    0.000    0.219    0.221
 pw_scatter_p                       252 14.1    0.203    0.206    0.203    0.206
 rs_pw_transfer_PW2RS_200            21 12.6    0.116    0.122    0.199    0.206
 pw_gather_p                        233 12.7    0.184    0.195    0.184    0.195
 multiply_cannon                    573 11.9    0.029    0.032    0.184    0.195
 make_m2s                          1146 11.9    0.012    0.014    0.182    0.190
 qs_ks_update_qs_env_forces           1  3.0    0.000    0.000    0.181    0.181
 init_scf_loop                        1  5.0    0.000    0.000    0.178    0.178
 mp_alltoall_d11v                   596 13.0    0.145    0.167    0.145    0.167
 grid_integrate_task_list            20 10.8    0.039    0.157    0.039    0.157
 qs_ot_get_derivative_diag           18 11.0    0.000    0.000    0.155    0.156
 qs_ot_p2m_diag                      37 10.0    0.001    0.001    0.152    0.154
 rs_gather_matrices                  20 10.8    0.000    0.000    0.121    0.143
 -------------------------------------------------------------------------------

 The number of warnings for this run is : 2
 
 -------------------------------------------------------------------------------
  **** **** ******  **  PROGRAM ENDED AT                 2021-10-27 11:33:45.346
 ***** ** ***  *** **   PROGRAM RAN ON                                    node10
 **    ****   ******    PROGRAM RAN BY                                   lujunbo
 ***** **    ** ** **   PROGRAM PROCESS ID                                183964
  **** **  *******  **  PROGRAM STOPPED IN /home/lujunbo/WORK/deepmd/c2h6/mtd/tr
                                           ain_4_sys/cp2k_md/sys_4/data/task_480
