 DBCSR| CPU Multiplication driver                                           XSMM
 DBCSR| Multrec recursion limit                                              512
 DBCSR| Multiplication stack size                                           1000
 DBCSR| Maximum elements for images                                    UNLIMITED
 DBCSR| Multiplicative factor virtual images                                   1
 DBCSR| Use multiplication densification                                       T
 DBCSR| Multiplication size stacks                                             3
 DBCSR| Use memory pool for CPU allocation                                     F
 DBCSR| Number of 3D layers                                               SINGLE
 DBCSR| Use MPI memory allocation                                              F
 DBCSR| Use RMA algorithm                                                      F
 DBCSR| Use Communication thread                                               T
 DBCSR| Communication thread load                                             87
 DBCSR| MPI: My node id                                                        0
 DBCSR| MPI: Number of nodes                                                  24
 DBCSR| OMP: Current number of threads                                         1
 DBCSR| OMP: Max number of threads                                             1
 DBCSR| Split modifier for TAS multiplication algorithm                  1.0E+00


  **** **** ******  **  PROGRAM STARTED AT               2021-10-27 16:16:28.420
 ***** ** ***  *** **   PROGRAM STARTED ON                                 node2
 **    ****   ******    PROGRAM STARTED BY                               lujunbo
 ***** **    ** ** **   PROGRAM PROCESS ID                                712946
  **** **  *******  **  PROGRAM STARTED IN /home/lujunbo/WORK/deepmd/c2h6/mtd/tr
                                           ain_4_sys/cp2k_md/sys_4/data/task_279
                                           2

 CP2K| version string:                                          CP2K version 8.2
 CP2K| source code revision number:                                  git:310b7ab
 CP2K| cp2kflags: omp libint fftw3 libxc elpa parallel mpi3 scalapack xsmm plume
 CP2K|            d2 spglib mkl libvori libbqb
 CP2K| is freely available from                            https://www.cp2k.org/
 CP2K| Program compiled at                          Tue Jun  1 15:18:23 CST 2021
 CP2K| Program compiled on                                                   mgr
 CP2K| Program compiled for                                                local
 CP2K| Data directory path                       /home/lujunbo/bin/cp2k-8.2/data
 CP2K| Input file name                                                 input.inp

 GLOBAL| Force Environment number                                              1
 GLOBAL| Basis set file name            /home/lujunbo/bin/cp2k-8.2/data/BASIS_MO
 GLOBAL| Potential file name            /home/lujunbo/bin/cp2k-8.2/data/POTENTIA
 GLOBAL| MM Potential file name                                     MM_POTENTIAL
 GLOBAL| Coordinate file name                                      __STD_INPUT__
 GLOBAL| Method name                                                        CP2K
 GLOBAL| Project name                                                       cp2k
 GLOBAL| Run type                                                   ENERGY_FORCE
 GLOBAL| FFT library                                                       FFTW3
 GLOBAL| Diagonalization library                                            ELPA
 GLOBAL| Minimum number of eigenvectors for ELPA usage                        16
 GLOBAL| Orthonormality check for eigenvectors                          DISABLED
 GLOBAL| Matrix multiplication library                                    SCALAP
 GLOBAL| All-to-all communication in single precision                          F
 GLOBAL| FFTs using library dependent lengths                                  F
 GLOBAL| Grid backend                                                       AUTO
 GLOBAL| Global print level                                                  LOW
 GLOBAL| MPI I/O enabled                                                       T
 GLOBAL| Total number of message passing processes                            24
 GLOBAL| Number of threads for this process                                    1
 GLOBAL| This output is from process                                           0
 GLOBAL| CPU model name             Intel(R) Xeon(R) Platinum 9242 CPU @ 2.30GHz
 GLOBAL| CPUID                                                              1003

 MEMORY| system memory details [Kb]
 MEMORY|                        rank 0           min           max       average
 MEMORY| MemTotal            394609400     394609400     394609400     394609400
 MEMORY| MemFree             120662128     120662128     120662128     120662128
 MEMORY| Buffers                164324        164324        164324        164324
 MEMORY| Cached              242938756     242938756     242938756     242938756
 MEMORY| Slab                  3172908       3172908       3172908       3172908
 MEMORY| SReclaimable          2425332       2425332       2425332       2425332
 MEMORY| MemLikelyFree       366190540     366190540     366190540     366190540


 GENERATE|  Preliminary Number of Bonds generated:                             0
 GENERATE|  Achieved consistency in connectivity generation.

 *******************************************************************************
 *******************************************************************************
 **                                                                           **
 **     #####                         ##              ##                      **
 **    ##   ##            ##          ##              ##                      **
 **   ##     ##                       ##            ######                    **
 **   ##     ##  ##   ##  ##   #####  ##  ##   ####   ##    #####    #####    **
 **   ##     ##  ##   ##  ##  ##      ## ##   ##      ##   ##   ##  ##   ##   **
 **   ##  ## ##  ##   ##  ##  ##      ####     ###    ##   ######   ######    **
 **    ##  ###   ##   ##  ##  ##      ## ##      ##   ##   ##       ##        **
 **     #######   #####   ##   #####  ##  ##  ####    ##    #####   ##        **
 **           ##                                                    ##        **
 **                                                                           **
 **                                                ... make the atoms dance   **
 **                                                                           **
 **            Copyright (C) by CP2K developers group (2000-2021)             **
 **                      J. Chem. Phys. 152, 194103 (2020)                    **
 **                                                                           **
 *******************************************************************************


 TOTAL NUMBERS AND MAXIMUM NUMBERS

  Total number of            - Atomic kinds:                                   2
                             - Atoms:                                          8
                             - Shell sets:                                     8
                             - Shells:                                        28
                             - Primitive Cartesian functions:                 40
                             - Cartesian basis functions:                     58
                             - Spherical basis functions:                     56

  Maximum angular momentum of- Orbital basis functions:                        2
                             - Local part of the GTH pseudopotential:          2
                             - Non-local part of the GTH pseudopotential:      0


 SCF PARAMETERS         Density guess:                                   RESTART
                        --------------------------------------------------------
                        max_scf:                                             100
                        max_scf_history:                                       0
                        max_diis:                                              4
                        --------------------------------------------------------
                        eps_scf:                                        1.00E-06
                        eps_scf_history:                                0.00E+00
                        eps_diis:                                       1.00E-01
                        eps_eigval:                                     1.00E-05
                        --------------------------------------------------------
                        level_shift [a.u.]:                                 0.00
                        --------------------------------------------------------
                        Outer loop SCF in use 
                        No variables optimised in outer loop
                        eps_scf                                         1.00E-06
                        max_scf                                                6
                        No outer loop optimization
                        step_size                                       5.00E-01

 Number of electrons:                                                         14
 Number of occupied orbitals:                                                  7
 Number of molecular orbitals:                                                 7

 Number of orbital functions:                                                 56
 Number of independent orbital functions:                                     56

 Extrapolation method: initial_guess

 *** WARNING in qs_initial_guess.F:309 :: User requested to restart the    ***
 *** wavefunction from the file named: cp2k-RESTART.wfn. This file does    ***
 *** not exist. Please check the existence of the file or change properly  ***
 *** the value of the keyword WFN_RESTART_FILE_NAME. Calculation continues ***
 *** using ATOMIC GUESS.                                                   ***



 SCF WAVEFUNCTION OPTIMIZATION

  ----------------------------------- OT ---------------------------------------
  Minimizer      : CG                  : conjugate gradient
  Preconditioner : FULL_ALL            : diagonalization, state selective
  Precond_solver : DEFAULT
  Line search    : 2PNT                : 2 energies, one gradient
  stepsize       :    0.15000000                  energy_gap     :    0.08000000
  eps_taylor     :   0.10000E-15                  max_taylor     :             4
  ----------------------------------- OT ---------------------------------------

  Step     Update method      Time    Convergence         Total energy    Change
  ------------------------------------------------------------------------------
     1 OT CG       0.15E+00   15.6     0.25969088       -13.3231968718 -1.33E+01
     2 OT LS       0.77E-01    2.0                      -13.4180545287
     3 OT CG       0.77E-01    0.4     0.13343711       -14.6567085781 -1.33E+00
     4 OT LS       0.52E-01    0.2                      -14.7975773013
     5 OT CG       0.52E-01    0.4     0.08835567       -14.8388694181 -1.82E-01
     6 OT LS       0.49E-01    0.2                      -14.9136305242
     7 OT CG       0.49E-01    0.3     0.03999139       -14.9138742946 -7.50E-02
     8 OT LS       0.87E-01    0.2                      -14.9361218210
     9 OT CG       0.87E-01    0.4     0.02161200       -14.9412747768 -2.74E-02
    10 OT LS       0.79E-01    0.2                      -14.9484150431
    11 OT CG       0.79E-01    0.4     0.01097112       -14.9484929224 -7.22E-03
    12 OT LS       0.57E-01    0.2                      -14.9496528280
    13 OT CG       0.57E-01    0.4     0.00600414       -14.9498459096 -1.35E-03
    14 OT LS       0.69E-01    0.2                      -14.9503216707
    15 OT CG       0.69E-01    0.4     0.00258621       -14.9503357728 -4.90E-04
    16 OT LS       0.80E-01    0.2                      -14.9504383077
    17 OT CG       0.80E-01    0.4     0.00117712       -14.9504400646 -1.04E-04
    18 OT LS       0.63E-01    0.2                      -14.9504559464
    19 OT CG       0.63E-01    0.4     0.00075657       -14.9504571554 -1.71E-05
    20 OT LS       0.75E-01    0.2                      -14.9504653234
    21 OT CG       0.75E-01    0.4     0.00037990       -14.9504655289 -8.37E-06
    22 OT LS       0.78E-01    0.2                      -14.9504677339
    23 OT CG       0.78E-01    0.3     0.00015491       -14.9504677382 -2.21E-06
    24 OT LS       0.71E-01    0.2                      -14.9504680681
    25 OT CG       0.71E-01    0.4     0.00010910       -14.9504680716 -3.33E-07
    26 OT LS       0.67E-01    0.2                      -14.9504682269
    27 OT CG       0.67E-01    0.4     0.00005129       -14.9504682275 -1.56E-07
    28 OT LS       0.88E-01    0.2                      -14.9504682703
    29 OT CG       0.88E-01    0.4     0.00002377       -14.9504682729 -4.54E-08
    30 OT LS       0.72E-01    0.2                      -14.9504682804
    31 OT CG       0.72E-01    0.4     0.00001590       -14.9504682809 -7.94E-09
    32 OT LS       0.61E-01    0.2                      -14.9504682838
    33 OT CG       0.61E-01    0.4     0.00000673       -14.9504682839 -3.00E-09
    34 OT LS       0.85E-01    0.2                      -14.9504682845
    35 OT CG       0.85E-01    0.4     0.00000336       -14.9504682846 -7.50E-10
    36 OT LS       0.73E-01    0.2                      -14.9504682848
    37 OT CG       0.73E-01    0.4     0.00000204       -14.9504682848 -1.62E-10
    38 OT LS       0.61E-01    0.2                      -14.9504682848
    39 OT CG       0.61E-01    0.4     0.00000104       -14.9504682848 -4.96E-11
    40 OT LS       0.76E-01    0.2                      -14.9504682848
    41 OT CG       0.76E-01    0.4     0.00000047       -14.9504682848 -1.60E-11

  *** SCF run converged in    41 steps ***


  Electronic density on regular grids:        -14.0000000000        0.0000000000
  Core density on regular grids:               13.9999999989       -0.0000000011
  Total charge density on r-space grids:       -0.0000000011
  Total charge density g-space grids:          -0.0000000011

  Overlap energy of the core charge distribution:               0.00000143851352
  Self energy of the core charge distribution:                -35.13285960674677
  Core Hamiltonian energy:                                     11.36059370897897
  Hartree energy:                                              14.46578119806717
  Exchange-correlation energy:                                 -5.64398502364972

  Total energy:                                               -14.95046828483684

  outer SCF iter =    1 RMS gradient =   0.47E-06 energy =        -14.9504682848
  outer SCF loop converged in   1 iterations or   41 steps


 ENERGY| Total FORCE_EVAL ( QS ) energy [a.u.]:              -14.950468284840277

 -------------------------------------------------------------------------------
 -                                                                             -
 -                                DBCSR STATISTICS                             -
 -                                                                             -
 -------------------------------------------------------------------------------
 COUNTER                                    TOTAL       BLAS       SMM       ACC
 flops     7 x     7 x     7               152978       0.0%    100.0%      0.0%
 flops     5 x    13 x     7               234780       0.0%    100.0%      0.0%
 flops    13 x     5 x     7               234780       0.0%    100.0%      0.0%
 flops     7 x     7 x    13               267540       0.0%    100.0%      0.0%
 flops    13 x    13 x     7               305214       0.0%    100.0%      0.0%
 flops     7 x     7 x     5               308700       0.0%    100.0%      0.0%
 flops     5 x     5 x     7               316050       0.0%    100.0%      0.0%
 flops    26 x     7 x     7               372008       0.0%    100.0%      0.0%
 flops    26 x     7 x    13               416416       0.0%    100.0%      0.0%
 flops    10 x     7 x     7               429240       0.0%    100.0%      0.0%
 flops    26 x     7 x     5               480480       0.0%    100.0%      0.0%
 flops    10 x     7 x    13               480480       0.0%    100.0%      0.0%
 flops    10 x     7 x     5               554400       0.0%    100.0%      0.0%
 flops    13 x     7 x    13               671944       0.0%    100.0%      0.0%
 flops    13 x     7 x     5               775320       0.0%    100.0%      0.0%
 flops     5 x     7 x    13               775320       0.0%    100.0%      0.0%
 flops     5 x     7 x     5               894600       0.0%    100.0%      0.0%
 flops inhomo. stacks                           0       0.0%      0.0%      0.0%
 flops total                         7.670250E+06       0.0%    100.0%      0.0%
 flops max/rank                      3.750600E+06       0.0%    100.0%      0.0%
 matmuls inhomo. stacks                         0       0.0%      0.0%      0.0%
 matmuls total                               9147       0.0%    100.0%      0.0%
 number of processed stacks                  6359       0.0%    100.0%      0.0%
 average stack size                                     0.0       1.4       0.0
 marketing flops                     8.472790E+06
 -------------------------------------------------------------------------------
 # multiplications                            633
 max memory usage/rank             178.884608E+06
 # max total images/rank                        3
 # max 3D layers                                1
 # MPI messages exchanged                  288648
 MPI messages size (bytes):
  total size                        22.380848E+06
  min size                           0.000000E+00
  max size                           2.704000E+03
  average size                      77.536819E+00
 MPI breakdown and total messages size (bytes):
             size <=      128              253992                        0
       128 < size <=     8192               34656                 22380848
      8192 < size <=    32768                   0                        0
     32768 < size <=   131072                   0                        0
    131072 < size <=  4194304                   0                        0
   4194304 < size <= 16777216                   0                        0
  16777216 < size                               0                        0
 -------------------------------------------------------------------------------

 *** WARNING in dbcsr_mm.F:294 :: Using a non-square number of MPI ranks ***
 *** might lead to poor performance. Used ranks: 24 Suggested: 25 49     ***

 -------------------------------------------------------------------------------
 -                                                                             -
 -                      DBCSR MESSAGE PASSING PERFORMANCE                      -
 -                                                                             -
 -------------------------------------------------------------------------------
 ROUTINE             CALLS      AVE VOLUME [Bytes]
 MP_Bcast               18                     12.
 MP_Allreduce         3244                      8.
 MP_Alltoall          2513                   1358.
 MP_ISend            26582                    161.
 MP_IRecv            26582                    108.
 -------------------------------------------------------------------------------

 -------------------------------------------------------------------------------
 -                                                                             -
 -                                GRID STATISTICS                              -
 -                                                                             -
 -------------------------------------------------------------------------------
 LP    KERNEL             BACKEND                              COUNT     PERCENT
 2     collocate ortho    REF                                  28560      38.50%
 3     collocate ortho    REF                                  15918      21.46%
 2     integrate ortho    REF                                  14280      19.25%
 3     integrate ortho    REF                                   7959      10.73%
 4     collocate ortho    REF                                   3948       5.32%
 4     integrate ortho    REF                                   1974       2.66%
 5     integrate ortho    REF                                    680       0.92%
 6     integrate ortho    REF                                    379       0.51%
 0     collocate general  REF                                    192       0.26%
 3     integrate general  REF                                    192       0.26%
 7     integrate ortho    REF                                     94       0.13%
 -------------------------------------------------------------------------------

 MEMORY| Estimated peak process memory [MiB]                                 171

 -------------------------------------------------------------------------------
 -                                                                             -
 -                         MESSAGE PASSING PERFORMANCE                         -
 -                                                                             -
 -------------------------------------------------------------------------------

 ROUTINE             CALLS      AVE VOLUME [Bytes]
 MP_Group                4
 MP_Bcast              761                 483325.
 MP_Allreduce         2245                    156.
 MP_Sync                92
 MP_Alltoall           612                2998307.
 MP_ISendRecv         4416                  53808.
 MP_Wait              6660
 MP_comm_split          44
 MP_ISend             1980                 171665.
 MP_IRecv             1980                 171402.
 MP_Recv                 9                    896.
 -------------------------------------------------------------------------------


 -------------------------------------------------------------------------------
 -                                                                             -
 -                           R E F E R E N C E S                               -
 -                                                                             -
 -------------------------------------------------------------------------------
 
 CP2K version 8.2, the CP2K developers group (2021).
 CP2K is freely available from https://www.cp2k.org/ .

 Kuehne,Thomas D.; Iannuzzi,Marcella; Del Ben,Mauro;
 Rybkin,Vladimir V.; Seewald,Patrick; Stein,Frederick; Laino,Teodoro;
 Khaliullin,Rustam Z.; Schuett,Ole; Schiffmann,Florian; Golze,Dorothea;
 Wilhelm,Jan; Chulkov,Sergey; Bani-Hashemian,Mohammad Hossein;
 Weber,Valery; Borstnik,Urban; Taillefumier,Mathieu;
 Jakobovits,Alice Shoshana; Lazzaro,Alfio; Pabst,Hans; Mueller,Tiziano;
 Schade,Robert; Guidon,Manuel; Andermatt,Samuel; Holmberg,Nico;
 Schenter,Gregory K.; Hehn,Anna; Bussy,Augustin; Belleflamme,Fabian;
 Tabacchi,Gloria; Gloess,Andreas; Lass,Michael; Bethune,Iain;
 Mundy,Christopher J.; Plessl,Christian; Watkins,Matt;
 VandeVondele,Joost; Krack,Matthias; Hutter,Juerg. 
 The Journal of Chemical Physics, 152 (19), (2020). 
 CP2K: An electronic structure and molecular dynamics software package -
 Quickstep: Efficient and accurate electronic structure calculations.
 https://doi.org/10.1063/5.0007045

 Schuett, Ole; Messmer, Peter; Hutter, Juerg; VandeVondele, Joost. 
 Electronic Structure Calculations on Graphics Processing Units, John
 Wiley & Sons, Ltd, 173-190 (2016). 
 GPU-Accelerated Sparse Matrix-Matrix Multiplication for
 Linear Scaling Density Functional Theory.
 https://doi.org/10.1002/9781118670712.ch8

 Heinecke, A; Henry, G; Hutchinson, M; Pabst, H. 
 Proceedings of Intl. Supercomputing Conference, 981-991 (2016). 
 LIBXSMM: Accelerating Small Matrix Multiplications
 by Runtime Code Generation.
 https://doi.org/10.1109/SC.2016.83

 Borstnik, U; VandeVondele, J; Weber, V; Hutter, J. 
 PARALLEL COMPUTING, 40 (5-6), 47-58 (2014). 
 Sparse matrix multiplication: The distributed block-compressed sparse
 row library.
 https://doi.org/10.1016/j.parco.2014.03.012

 Hutter, J; Iannuzzi, M; Schiffmann, F; VandeVondele, J. 
 WIREs Comput Mol Sci., 4 (1), 15-25 (2014). 
 CP2K: atomistic simulations of condensed matter systems.
 https://doi.org/10.1002/wcms.1159

 Marek, A; Blum, V; Johanni, R; Havu, V; Lang, B; Auckenthaler, T;
 Heinecke, A; Bungartz, H; Lederer, H. 
 Journal of Physics: Condensed Matter, 26 (21), (2014). 
 The ELPA library: scalable parallel eigenvalue solutions for
 electronic structure
 theory and computational science.
 https://doi.org/10.1088/0953-8984/26/21/213201

 VandeVondele, J; Hutter, J. 
 JOURNAL OF CHEMICAL PHYSICS, 127 (11), 114105 (2007). 
 Gaussian basis sets for accurate calculations on molecular systems in
 gas and condensed phases.
 https://doi.org/10.1063/1.2770708

 Krack, M. 
 THEORETICAL CHEMISTRY ACCOUNTS, 114 (1-3), 145-152 (2005). 
 Pseudopotentials for H to Kr optimized for gradient-corrected
 exchange-correlation functionals.
 https://doi.org/10.1007/s00214-005-0655-y

 VandeVondele, J; Krack, M; Mohamed, F; Parrinello, M; Chassaing, T;
 Hutter, J. COMPUTER PHYSICS COMMUNICATIONS, 167 (2), 103-128 (2005). 
 QUICKSTEP: Fast and accurate density functional calculations using a
 mixed Gaussian and plane waves approach.
 https://doi.org/10.1016/j.cpc.2004.12.014

 Frigo, M; Johnson, SG. 
 PROCEEDINGS OF THE IEEE, 93 (2), 216-231 (2005). 
 The design and implementation of FFTW3.
 https://doi.org/10.1109/JPROC.2004.840301

 VandeVondele, J; Hutter, J. 
 JOURNAL OF CHEMICAL PHYSICS, 118 (10), 4365-4369 (2003). 
 An efficient orbital transformation method for electronic structure
 calculations.
 https://doi.org/10.1063/1.1543154

 Hartwigsen, C; Goedecker, S; Hutter, J. 
 PHYSICAL REVIEW B, 58 (7), 3641-3662 (1998). 
 Relativistic separable dual-space Gaussian pseudopotentials from H to Rn.
 https://doi.org/10.1103/PhysRevB.58.3641

 Lippert, G; Hutter, J; Parrinello, M. 
 MOLECULAR PHYSICS, 92 (3), 477-487 (1997). 
 A hybrid Gaussian and plane wave density functional scheme.
 https://doi.org/10.1080/002689797170220

 Perdew, JP; Burke, K; Ernzerhof, M. 
 PHYSICAL REVIEW LETTERS, 77 (18), 3865-3868 (1996). 
 Generalized gradient approximation made simple.
 https://doi.org/10.1103/PhysRevLett.77.3865

 Goedecker, S; Teter, M; Hutter, J. 
 PHYSICAL REVIEW B, 54 (3), 1703-1710 (1996). 
 Separable dual-space Gaussian pseudopotentials.
 https://doi.org/10.1103/PhysRevB.54.1703


 -------------------------------------------------------------------------------
 -                                                                             -
 -                                T I M I N G                                  -
 -                                                                             -
 -------------------------------------------------------------------------------
 SUBROUTINE                       CALLS  ASD         SELF TIME        TOTAL TIME
                                MAXIMUM       AVERAGE  MAXIMUM  AVERAGE  MAXIMUM
 CP2K                                 1  1.0    0.007    0.013   43.675   43.677
 qs_forces                            1  2.0    0.000    0.000   36.861   36.873
 qs_energies                          1  3.0    0.000    0.000   35.109   35.109
 scf_env_do_scf                       1  4.0    0.000    0.000   30.844   30.848
 scf_env_do_scf_inner_loop           41  5.0    0.002    0.014   20.484   20.537
 rebuild_ks_matrix                   42  6.9    0.000    0.000   10.600   10.623
 qs_ks_build_kohn_sham_matrix        42  7.9    0.004    0.004   10.600   10.623
 init_scf_loop                        1  5.0    0.000    0.000   10.146   10.261
 qs_ks_update_qs_env                 42  6.0    0.000    0.000    9.640    9.662
 pw_transfer                        619 10.4    0.028    0.034    9.292    9.495
 fft_wrap_pw1pw2                    535 11.5    0.004    0.005    9.244    9.448
 fft3d_ps                           535 13.5    1.502    2.681    8.646    8.855
 copy_dbcsr_to_fm                    59 10.9    0.001    0.001    7.788    7.883
 dbcsr_complete_redistribute        116 12.0    0.004    0.005    7.810    7.859
 fft_wrap_pw1pw2_200                343 12.7    0.179    0.244    7.386    7.543
 qs_scf_new_mos                      41  6.0    0.000    0.000    7.358    7.390
 qs_scf_loop_do_ot                   41  7.0    0.000    0.000    7.358    7.389
 prepare_preconditioner               1  6.0    0.000    0.000    7.292    7.304
 mp_alltoall_z22v                   535 15.5    6.923    7.216    6.923    7.216
 ot_scf_mini                         41  8.0    0.001    0.001    7.152    7.183
 qs_vxc_create                       42  8.9    0.000    0.001    6.961    6.976
 dbcsr_multiply_generic             633 10.9    0.018    0.030    6.294    6.408
 mp_sum_l                          3291 11.2    5.488    5.610    5.488    5.610
 make_preconditioner                  1  7.0    0.000    0.000    5.552    5.564
 qs_rho_update_rho                   42  6.0    0.000    0.000    5.273    5.329
 calculate_rho_elec                  42  7.0    0.025    0.050    5.273    5.329
 xc_rho_set_and_dset_create          42 10.9    0.016    0.017    3.883    5.104
 mp_alltoall_d11v                   650 13.0    4.688    5.078    4.688    5.078
 density_rs2pw                       42  8.0    0.002    0.002    4.545    4.632
 xc_vxc_pw_create                    22  9.9    0.039    0.049    4.503    4.518
 cp_dbcsr_sm_fm_multiply              5  8.0    0.000    0.000    4.186    4.206
 init_scf_run                         1  4.0    0.000    0.000    4.170    4.179
 scf_env_initial_rho_setup            1  5.0    0.000    0.000    4.170    4.179
 yz_to_x                            257 13.7    0.066    0.097    3.639    3.933
 cp_dbcsr_syevd                      43 10.9    0.003    0.013    3.831    3.931
 x_to_yz                            278 15.1    0.148    0.181    3.498    3.643
 ot_mini                             41  9.0    0.001    0.026    3.553    3.585
 make_full_all                        1  8.0    0.001    0.013    3.472    3.486
 mp_alltoall_i11v                   467 13.1    3.270    3.293    3.270    3.293
 qs_ot_get_p                         42  9.0    0.000    0.000    3.054    3.176
 subspace_eigenvalues_ks_dbcsr        2  7.5    0.000    0.000    3.142    3.155
 calculate_first_density_matrix       1  6.0    0.000    0.001    3.104    3.114
 mp_max_i                           411  1.6    2.986    3.039    2.986    3.039
 qs_ot_get_derivative                21 10.0    0.000    0.000    2.991    3.023
 mp_waitall_1                     40128 14.7    2.393    2.903    2.393    2.903
 dbcsr_desymmetrize_deep             59 11.9    0.001    0.001    2.759    2.899
 copy_fm_to_dbcsr                    57 11.1    0.000    0.000    2.787    2.855
 rs_pw_transfer                     258 10.0    0.003    0.004    2.713    2.809
 sum_up_and_integrate                22  8.9    0.004    0.005    2.634    2.640
 integrate_v_rspace                  22  9.9    0.000    0.000    2.630    2.636
 xc_exc_calc                         20 10.0    0.009    0.010    2.457    2.457
 xc_functional_eval                  42 11.9    0.000    0.000    1.153    2.271
 pbe_lda_eval                        42 12.9    1.153    2.270    1.153    2.270
 potential_pw2rs                     22 10.9    0.001    0.001    2.198    2.219
 multiply_cannon                    633 11.9    0.035    0.085    1.759    2.196
 qs_ot_p2m_diag                      41 10.0    0.001    0.001    2.089    2.195
 hybrid_alltoall_any               1325 14.8    0.007    0.009    1.677    2.112
 make_m2s                          1266 11.9    0.014    0.016    1.657    2.072
 make_images                       1266 12.9    0.023    0.048    1.593    2.006
 mp_cart_sub                        120 12.9    1.818    1.844    1.818    1.844
 mp_sum_d                          1157  8.0    1.456    1.714    1.456    1.714
 make_images_sizes                 1266 13.9    0.001    0.014    1.330    1.689
 mp_alltoall_i44                   1266 14.9    1.329    1.688    1.329    1.688
 cp_fm_syevd                         43 11.9    0.000    0.000    1.453    1.496
 multiply_cannon_loop               633 12.9    0.026    0.039    0.882    1.299
 mp_alltoall_i22                    195 13.1    0.653    1.140    0.653    1.140
 cp_fm_redistribute_start            44 12.8    0.795    0.839    1.073    1.127
 multiply_cannon_metrocomm3        7596 13.9    0.007    0.020    0.471    1.112
 mp_allgather_i34                   633 12.9    0.811    1.080    0.811    1.080
 qs_ks_update_qs_env_forces           1  3.0    0.000    0.000    1.052    1.057
 write_mo_set_to_restart             41  6.0    0.001    0.013    0.957    0.980
 mp_waitany                        1980 11.9    0.796    0.963    0.796    0.963
 rs_pw_transfer_RS2PW_200            43 10.0    0.200    0.385    0.843    0.902
 cp_fm_redistribute_end              44 12.8    0.825    0.862    0.828    0.889
 -------------------------------------------------------------------------------

 The number of warnings for this run is : 2
 
 -------------------------------------------------------------------------------
  **** **** ******  **  PROGRAM ENDED AT                 2021-10-27 16:17:12.786
 ***** ** ***  *** **   PROGRAM RAN ON                                     node2
 **    ****   ******    PROGRAM RAN BY                                   lujunbo
 ***** **    ** ** **   PROGRAM PROCESS ID                                712946
  **** **  *******  **  PROGRAM STOPPED IN /home/lujunbo/WORK/deepmd/c2h6/mtd/tr
                                           ain_4_sys/cp2k_md/sys_4/data/task_279
                                           2
