 DBCSR| CPU Multiplication driver                                           XSMM
 DBCSR| Multrec recursion limit                                              512
 DBCSR| Multiplication stack size                                           1000
 DBCSR| Maximum elements for images                                    UNLIMITED
 DBCSR| Multiplicative factor virtual images                                   1
 DBCSR| Use multiplication densification                                       T
 DBCSR| Multiplication size stacks                                             3
 DBCSR| Use memory pool for CPU allocation                                     F
 DBCSR| Number of 3D layers                                               SINGLE
 DBCSR| Use MPI memory allocation                                              F
 DBCSR| Use RMA algorithm                                                      F
 DBCSR| Use Communication thread                                               T
 DBCSR| Communication thread load                                             87
 DBCSR| MPI: My node id                                                        0
 DBCSR| MPI: Number of nodes                                                  24
 DBCSR| OMP: Current number of threads                                         1
 DBCSR| OMP: Max number of threads                                             1
 DBCSR| Split modifier for TAS multiplication algorithm                  1.0E+00


  **** **** ******  **  PROGRAM STARTED AT               2021-10-27 10:31:14.241
 ***** ** ***  *** **   PROGRAM STARTED ON                                node10
 **    ****   ******    PROGRAM STARTED BY                               lujunbo
 ***** **    ** ** **   PROGRAM PROCESS ID                                149953
  **** **  *******  **  PROGRAM STARTED IN /home/lujunbo/WORK/deepmd/c2h6/mtd/tr
                                           ain_4_sys/cp2k_md/sys_4/data/task_42

 CP2K| version string:                                          CP2K version 8.2
 CP2K| source code revision number:                                  git:310b7ab
 CP2K| cp2kflags: omp libint fftw3 libxc elpa parallel mpi3 scalapack xsmm plume
 CP2K|            d2 spglib mkl libvori libbqb
 CP2K| is freely available from                            https://www.cp2k.org/
 CP2K| Program compiled at                          Tue Jun  1 15:18:23 CST 2021
 CP2K| Program compiled on                                                   mgr
 CP2K| Program compiled for                                                local
 CP2K| Data directory path                       /home/lujunbo/bin/cp2k-8.2/data
 CP2K| Input file name                                                 input.inp

 GLOBAL| Force Environment number                                              1
 GLOBAL| Basis set file name            /home/lujunbo/bin/cp2k-8.2/data/BASIS_MO
 GLOBAL| Potential file name            /home/lujunbo/bin/cp2k-8.2/data/POTENTIA
 GLOBAL| MM Potential file name                                     MM_POTENTIAL
 GLOBAL| Coordinate file name                                      __STD_INPUT__
 GLOBAL| Method name                                                        CP2K
 GLOBAL| Project name                                                       cp2k
 GLOBAL| Run type                                                   ENERGY_FORCE
 GLOBAL| FFT library                                                       FFTW3
 GLOBAL| Diagonalization library                                            ELPA
 GLOBAL| Minimum number of eigenvectors for ELPA usage                        16
 GLOBAL| Orthonormality check for eigenvectors                          DISABLED
 GLOBAL| Matrix multiplication library                                    SCALAP
 GLOBAL| All-to-all communication in single precision                          F
 GLOBAL| FFTs using library dependent lengths                                  F
 GLOBAL| Grid backend                                                       AUTO
 GLOBAL| Global print level                                                  LOW
 GLOBAL| MPI I/O enabled                                                       T
 GLOBAL| Total number of message passing processes                            24
 GLOBAL| Number of threads for this process                                    1
 GLOBAL| This output is from process                                           0
 GLOBAL| CPU model name             Intel(R) Xeon(R) Platinum 9242 CPU @ 2.30GHz
 GLOBAL| CPUID                                                              1003

 MEMORY| system memory details [Kb]
 MEMORY|                        rank 0           min           max       average
 MEMORY| MemTotal            394609400     394609400     394609400     394609400
 MEMORY| MemFree             296381884     296381428     296381884     296381447
 MEMORY| Buffers                177176        177176        177176        177176
 MEMORY| Cached               62392868      62392712      62392868      62392718
 MEMORY| Slab                  1258260       1258260       1258260       1258260
 MEMORY| SReclaimable           573952        573952        573952        573952
 MEMORY| MemLikelyFree       359525880     359525268     359525880     359525293


 GENERATE|  Preliminary Number of Bonds generated:                             0
 GENERATE|  Achieved consistency in connectivity generation.

 *******************************************************************************
 *******************************************************************************
 **                                                                           **
 **     #####                         ##              ##                      **
 **    ##   ##            ##          ##              ##                      **
 **   ##     ##                       ##            ######                    **
 **   ##     ##  ##   ##  ##   #####  ##  ##   ####   ##    #####    #####    **
 **   ##     ##  ##   ##  ##  ##      ## ##   ##      ##   ##   ##  ##   ##   **
 **   ##  ## ##  ##   ##  ##  ##      ####     ###    ##   ######   ######    **
 **    ##  ###   ##   ##  ##  ##      ## ##      ##   ##   ##       ##        **
 **     #######   #####   ##   #####  ##  ##  ####    ##    #####   ##        **
 **           ##                                                    ##        **
 **                                                                           **
 **                                                ... make the atoms dance   **
 **                                                                           **
 **            Copyright (C) by CP2K developers group (2000-2021)             **
 **                      J. Chem. Phys. 152, 194103 (2020)                    **
 **                                                                           **
 *******************************************************************************


 TOTAL NUMBERS AND MAXIMUM NUMBERS

  Total number of            - Atomic kinds:                                   2
                             - Atoms:                                          8
                             - Shell sets:                                     8
                             - Shells:                                        28
                             - Primitive Cartesian functions:                 40
                             - Cartesian basis functions:                     58
                             - Spherical basis functions:                     56

  Maximum angular momentum of- Orbital basis functions:                        2
                             - Local part of the GTH pseudopotential:          2
                             - Non-local part of the GTH pseudopotential:      0


 SCF PARAMETERS         Density guess:                                   RESTART
                        --------------------------------------------------------
                        max_scf:                                             100
                        max_scf_history:                                       0
                        max_diis:                                              4
                        --------------------------------------------------------
                        eps_scf:                                        1.00E-06
                        eps_scf_history:                                0.00E+00
                        eps_diis:                                       1.00E-01
                        eps_eigval:                                     1.00E-05
                        --------------------------------------------------------
                        level_shift [a.u.]:                                 0.00
                        --------------------------------------------------------
                        Outer loop SCF in use 
                        No variables optimised in outer loop
                        eps_scf                                         1.00E-06
                        max_scf                                                6
                        No outer loop optimization
                        step_size                                       5.00E-01

 Number of electrons:                                                         14
 Number of occupied orbitals:                                                  7
 Number of molecular orbitals:                                                 7

 Number of orbital functions:                                                 56
 Number of independent orbital functions:                                     56

 Extrapolation method: initial_guess

 *** WARNING in qs_initial_guess.F:309 :: User requested to restart the    ***
 *** wavefunction from the file named: cp2k-RESTART.wfn. This file does    ***
 *** not exist. Please check the existence of the file or change properly  ***
 *** the value of the keyword WFN_RESTART_FILE_NAME. Calculation continues ***
 *** using ATOMIC GUESS.                                                   ***



 SCF WAVEFUNCTION OPTIMIZATION

  ----------------------------------- OT ---------------------------------------
  Minimizer      : CG                  : conjugate gradient
  Preconditioner : FULL_ALL            : diagonalization, state selective
  Precond_solver : DEFAULT
  Line search    : 2PNT                : 2 energies, one gradient
  stepsize       :    0.15000000                  energy_gap     :    0.08000000
  eps_taylor     :   0.10000E-15                  max_taylor     :             4
  ----------------------------------- OT ---------------------------------------

  Step     Update method      Time    Convergence         Total energy    Change
  ------------------------------------------------------------------------------
     1 OT CG       0.15E+00    0.2     0.32889669       -12.6717423407 -1.27E+01
     2 OT LS       0.79E-01    0.2                      -12.9908134684
     3 OT CG       0.79E-01    0.2     0.24297326       -14.2007503493 -1.53E+00
     4 OT LS       0.39E-01    0.1                      -14.1706437637
     5 OT CG       0.39E-01    0.2     0.13416383       -14.6550742895 -4.54E-01
     6 OT LS       0.66E-01    0.1                      -14.8484376172
     7 OT CG       0.66E-01    0.2     0.05879584       -14.8832196157 -2.28E-01
     8 OT LS       0.79E-01    0.1                      -14.9322533505
     9 OT CG       0.79E-01    0.2     0.02965937       -14.9335436281 -5.03E-02
    10 OT LS       0.76E-01    0.1                      -14.9465921776
    11 OT CG       0.76E-01    0.2     0.01373673       -14.9466151375 -1.31E-02
    12 OT LS       0.88E-01    0.1                      -14.9497958313
    13 OT CG       0.88E-01    0.2     0.00767854       -14.9498584463 -3.24E-03
    14 OT LS       0.95E-01    0.1                      -14.9509448092
    15 OT CG       0.95E-01    0.2     0.00392848       -14.9509501979 -1.09E-03
    16 OT LS       0.75E-01    0.1                      -14.9511641067
    17 OT CG       0.75E-01    0.2     0.00151911       -14.9511787679 -2.29E-04
    18 OT LS       0.90E-01    0.1                      -14.9512184512
    19 OT CG       0.90E-01    0.2     0.00085689       -14.9512195367 -4.08E-05
    20 OT LS       0.81E-01    0.1                      -14.9512310726
    21 OT CG       0.81E-01    0.2     0.00040273       -14.9512312165 -1.17E-05
    22 OT LS       0.10E+00    0.1                      -14.9512343263
    23 OT CG       0.10E+00    0.3     0.00021317       -14.9512344632 -3.25E-06
    24 OT LS       0.85E-01    0.1                      -14.9512351849
    25 OT CG       0.85E-01    0.2     0.00012508       -14.9512352171 -7.54E-07
    26 OT LS       0.84E-01    0.1                      -14.9512354761
    27 OT CG       0.84E-01    0.2     0.00005209       -14.9512354761 -2.59E-07
    28 OT LS       0.10E+00    0.1                      -14.9512355292
    29 OT CG       0.10E+00    0.2     0.00002707       -14.9512355310 -5.49E-08
    30 OT LS       0.82E-01    0.1                      -14.9512355418
    31 OT CG       0.82E-01    0.2     0.00001624       -14.9512355427 -1.17E-08
    32 OT LS       0.92E-01    0.1                      -14.9512355474
    33 OT CG       0.92E-01    0.2     0.00000780       -14.9512355474 -4.76E-09
    34 OT LS       0.10E+00    0.1                      -14.9512355487
    35 OT CG       0.10E+00    0.2     0.00000416       -14.9512355487 -1.25E-09
    36 OT LS       0.79E-01    0.1                      -14.9512355489
    37 OT CG       0.79E-01    0.2     0.00000204       -14.9512355489 -2.68E-10
    38 OT LS       0.89E-01    0.1                      -14.9512355490
    39 OT CG       0.89E-01    0.2     0.00000115       -14.9512355490 -7.27E-11
    40 OT LS       0.84E-01    0.1                      -14.9512355490
    41 OT CG       0.84E-01    0.2     0.00000053       -14.9512355490 -2.18E-11

  *** SCF run converged in    41 steps ***


  Electronic density on regular grids:        -14.0000000000        0.0000000000
  Core density on regular grids:               13.9999999989       -0.0000000011
  Total charge density on r-space grids:       -0.0000000010
  Total charge density g-space grids:          -0.0000000010

  Overlap energy of the core charge distribution:               0.00000096882889
  Self energy of the core charge distribution:                -35.13285960674677
  Core Hamiltonian energy:                                     11.23846520978482
  Hartree energy:                                              14.54958335521657
  Exchange-correlation energy:                                 -5.60642547612390

  Total energy:                                               -14.95123554904039

  outer SCF iter =    1 RMS gradient =   0.53E-06 energy =        -14.9512355490
  outer SCF loop converged in   1 iterations or   41 steps


 ENERGY| Total FORCE_EVAL ( QS ) energy [a.u.]:              -14.951235549045997

 -------------------------------------------------------------------------------
 -                                                                             -
 -                                DBCSR STATISTICS                             -
 -                                                                             -
 -------------------------------------------------------------------------------
 COUNTER                                    TOTAL       BLAS       SMM       ACC
 flops     7 x     7 x     7               152978       0.0%    100.0%      0.0%
 flops     5 x    13 x     7               234780       0.0%    100.0%      0.0%
 flops    13 x     5 x     7               234780       0.0%    100.0%      0.0%
 flops     7 x     7 x    13               267540       0.0%    100.0%      0.0%
 flops    13 x    13 x     7               305214       0.0%    100.0%      0.0%
 flops     7 x     7 x     5               308700       0.0%    100.0%      0.0%
 flops     5 x     5 x     7               316050       0.0%    100.0%      0.0%
 flops    26 x     7 x     7               372008       0.0%    100.0%      0.0%
 flops    26 x     7 x    13               416416       0.0%    100.0%      0.0%
 flops    10 x     7 x     7               429240       0.0%    100.0%      0.0%
 flops    26 x     7 x     5               480480       0.0%    100.0%      0.0%
 flops    10 x     7 x    13               480480       0.0%    100.0%      0.0%
 flops    10 x     7 x     5               554400       0.0%    100.0%      0.0%
 flops    13 x     7 x    13               671944       0.0%    100.0%      0.0%
 flops    13 x     7 x     5               775320       0.0%    100.0%      0.0%
 flops     5 x     7 x    13               775320       0.0%    100.0%      0.0%
 flops     5 x     7 x     5               894600       0.0%    100.0%      0.0%
 flops inhomo. stacks                           0       0.0%      0.0%      0.0%
 flops total                         7.670250E+06       0.0%    100.0%      0.0%
 flops max/rank                      3.750600E+06       0.0%    100.0%      0.0%
 matmuls inhomo. stacks                         0       0.0%      0.0%      0.0%
 matmuls total                               9147       0.0%    100.0%      0.0%
 number of processed stacks                  6359       0.0%    100.0%      0.0%
 average stack size                                     0.0       1.4       0.0
 marketing flops                     8.472790E+06
 -------------------------------------------------------------------------------
 # multiplications                            633
 max memory usage/rank             179.355648E+06
 # max total images/rank                        3
 # max 3D layers                                1
 # MPI messages exchanged                  288648
 MPI messages size (bytes):
  total size                        22.380848E+06
  min size                           0.000000E+00
  max size                           2.704000E+03
  average size                      77.536819E+00
 MPI breakdown and total messages size (bytes):
             size <=      128              253992                        0
       128 < size <=     8192               34656                 22380848
      8192 < size <=    32768                   0                        0
     32768 < size <=   131072                   0                        0
    131072 < size <=  4194304                   0                        0
   4194304 < size <= 16777216                   0                        0
  16777216 < size                               0                        0
 -------------------------------------------------------------------------------

 *** WARNING in dbcsr_mm.F:294 :: Using a non-square number of MPI ranks ***
 *** might lead to poor performance. Used ranks: 24 Suggested: 25 49     ***

 -------------------------------------------------------------------------------
 -                                                                             -
 -                      DBCSR MESSAGE PASSING PERFORMANCE                      -
 -                                                                             -
 -------------------------------------------------------------------------------
 ROUTINE             CALLS      AVE VOLUME [Bytes]
 MP_Bcast               18                     12.
 MP_Allreduce         3244                      8.
 MP_Alltoall          2513                   1358.
 MP_ISend            26582                    161.
 MP_IRecv            26582                    108.
 -------------------------------------------------------------------------------

 -------------------------------------------------------------------------------
 -                                                                             -
 -                                GRID STATISTICS                              -
 -                                                                             -
 -------------------------------------------------------------------------------
 LP    KERNEL             BACKEND                              COUNT     PERCENT
 2     collocate ortho    REF                                  27972      38.20%
 3     collocate ortho    REF                                  15918      21.74%
 2     integrate ortho    REF                                  13986      19.10%
 3     integrate ortho    REF                                   7959      10.87%
 4     collocate ortho    REF                                   3906       5.33%
 4     integrate ortho    REF                                   1953       2.67%
 5     integrate ortho    REF                                    666       0.91%
 6     integrate ortho    REF                                    379       0.52%
 0     collocate general  REF                                    192       0.26%
 3     integrate general  REF                                    192       0.26%
 7     integrate ortho    REF                                     93       0.13%
 -------------------------------------------------------------------------------

 MEMORY| Estimated peak process memory [MiB]                                 172

 -------------------------------------------------------------------------------
 -                                                                             -
 -                         MESSAGE PASSING PERFORMANCE                         -
 -                                                                             -
 -------------------------------------------------------------------------------

 ROUTINE             CALLS      AVE VOLUME [Bytes]
 MP_Group                4
 MP_Bcast              765                 480798.
 MP_Allreduce         2255                    155.
 MP_Sync                92
 MP_Alltoall           612                2998306.
 MP_ISendRecv         4416                  53808.
 MP_Wait              6660
 MP_comm_split          44
 MP_ISend             1980                 171665.
 MP_IRecv             1980                 171402.
 MP_Recv                 9                    896.
 -------------------------------------------------------------------------------


 -------------------------------------------------------------------------------
 -                                                                             -
 -                           R E F E R E N C E S                               -
 -                                                                             -
 -------------------------------------------------------------------------------
 
 CP2K version 8.2, the CP2K developers group (2021).
 CP2K is freely available from https://www.cp2k.org/ .

 Kuehne,Thomas D.; Iannuzzi,Marcella; Del Ben,Mauro;
 Rybkin,Vladimir V.; Seewald,Patrick; Stein,Frederick; Laino,Teodoro;
 Khaliullin,Rustam Z.; Schuett,Ole; Schiffmann,Florian; Golze,Dorothea;
 Wilhelm,Jan; Chulkov,Sergey; Bani-Hashemian,Mohammad Hossein;
 Weber,Valery; Borstnik,Urban; Taillefumier,Mathieu;
 Jakobovits,Alice Shoshana; Lazzaro,Alfio; Pabst,Hans; Mueller,Tiziano;
 Schade,Robert; Guidon,Manuel; Andermatt,Samuel; Holmberg,Nico;
 Schenter,Gregory K.; Hehn,Anna; Bussy,Augustin; Belleflamme,Fabian;
 Tabacchi,Gloria; Gloess,Andreas; Lass,Michael; Bethune,Iain;
 Mundy,Christopher J.; Plessl,Christian; Watkins,Matt;
 VandeVondele,Joost; Krack,Matthias; Hutter,Juerg. 
 The Journal of Chemical Physics, 152 (19), (2020). 
 CP2K: An electronic structure and molecular dynamics software package -
 Quickstep: Efficient and accurate electronic structure calculations.
 https://doi.org/10.1063/5.0007045

 Schuett, Ole; Messmer, Peter; Hutter, Juerg; VandeVondele, Joost. 
 Electronic Structure Calculations on Graphics Processing Units, John
 Wiley & Sons, Ltd, 173-190 (2016). 
 GPU-Accelerated Sparse Matrix-Matrix Multiplication for
 Linear Scaling Density Functional Theory.
 https://doi.org/10.1002/9781118670712.ch8

 Heinecke, A; Henry, G; Hutchinson, M; Pabst, H. 
 Proceedings of Intl. Supercomputing Conference, 981-991 (2016). 
 LIBXSMM: Accelerating Small Matrix Multiplications
 by Runtime Code Generation.
 https://doi.org/10.1109/SC.2016.83

 Borstnik, U; VandeVondele, J; Weber, V; Hutter, J. 
 PARALLEL COMPUTING, 40 (5-6), 47-58 (2014). 
 Sparse matrix multiplication: The distributed block-compressed sparse
 row library.
 https://doi.org/10.1016/j.parco.2014.03.012

 Hutter, J; Iannuzzi, M; Schiffmann, F; VandeVondele, J. 
 WIREs Comput Mol Sci., 4 (1), 15-25 (2014). 
 CP2K: atomistic simulations of condensed matter systems.
 https://doi.org/10.1002/wcms.1159

 Marek, A; Blum, V; Johanni, R; Havu, V; Lang, B; Auckenthaler, T;
 Heinecke, A; Bungartz, H; Lederer, H. 
 Journal of Physics: Condensed Matter, 26 (21), (2014). 
 The ELPA library: scalable parallel eigenvalue solutions for
 electronic structure
 theory and computational science.
 https://doi.org/10.1088/0953-8984/26/21/213201

 VandeVondele, J; Hutter, J. 
 JOURNAL OF CHEMICAL PHYSICS, 127 (11), 114105 (2007). 
 Gaussian basis sets for accurate calculations on molecular systems in
 gas and condensed phases.
 https://doi.org/10.1063/1.2770708

 Krack, M. 
 THEORETICAL CHEMISTRY ACCOUNTS, 114 (1-3), 145-152 (2005). 
 Pseudopotentials for H to Kr optimized for gradient-corrected
 exchange-correlation functionals.
 https://doi.org/10.1007/s00214-005-0655-y

 VandeVondele, J; Krack, M; Mohamed, F; Parrinello, M; Chassaing, T;
 Hutter, J. COMPUTER PHYSICS COMMUNICATIONS, 167 (2), 103-128 (2005). 
 QUICKSTEP: Fast and accurate density functional calculations using a
 mixed Gaussian and plane waves approach.
 https://doi.org/10.1016/j.cpc.2004.12.014

 Frigo, M; Johnson, SG. 
 PROCEEDINGS OF THE IEEE, 93 (2), 216-231 (2005). 
 The design and implementation of FFTW3.
 https://doi.org/10.1109/JPROC.2004.840301

 VandeVondele, J; Hutter, J. 
 JOURNAL OF CHEMICAL PHYSICS, 118 (10), 4365-4369 (2003). 
 An efficient orbital transformation method for electronic structure
 calculations.
 https://doi.org/10.1063/1.1543154

 Hartwigsen, C; Goedecker, S; Hutter, J. 
 PHYSICAL REVIEW B, 58 (7), 3641-3662 (1998). 
 Relativistic separable dual-space Gaussian pseudopotentials from H to Rn.
 https://doi.org/10.1103/PhysRevB.58.3641

 Lippert, G; Hutter, J; Parrinello, M. 
 MOLECULAR PHYSICS, 92 (3), 477-487 (1997). 
 A hybrid Gaussian and plane wave density functional scheme.
 https://doi.org/10.1080/002689797170220

 Perdew, JP; Burke, K; Ernzerhof, M. 
 PHYSICAL REVIEW LETTERS, 77 (18), 3865-3868 (1996). 
 Generalized gradient approximation made simple.
 https://doi.org/10.1103/PhysRevLett.77.3865

 Goedecker, S; Teter, M; Hutter, J. 
 PHYSICAL REVIEW B, 54 (3), 1703-1710 (1996). 
 Separable dual-space Gaussian pseudopotentials.
 https://doi.org/10.1103/PhysRevB.54.1703


 -------------------------------------------------------------------------------
 -                                                                             -
 -                                T I M I N G                                  -
 -                                                                             -
 -------------------------------------------------------------------------------
 SUBROUTINE                       CALLS  ASD         SELF TIME        TOTAL TIME
                                MAXIMUM       AVERAGE  MAXIMUM  AVERAGE  MAXIMUM
 CP2K                                 1  1.0    0.007    0.018    7.561    7.563
 qs_forces                            1  2.0    0.000    0.000    7.416    7.416
 qs_energies                          1  3.0    0.000    0.000    7.216    7.216
 scf_env_do_scf                       1  4.0    0.000    0.000    7.106    7.106
 scf_env_do_scf_inner_loop           41  5.0    0.001    0.004    6.923    6.923
 rebuild_ks_matrix                   42  6.9    0.000    0.000    4.747    4.748
 qs_ks_build_kohn_sham_matrix        42  7.9    0.004    0.005    4.747    4.748
 qs_ks_update_qs_env                 42  6.0    0.000    0.000    4.556    4.557
 qs_vxc_create                       42  8.9    0.000    0.001    3.598    3.603
 pw_transfer                        619 10.4    0.027    0.030    3.429    3.602
 fft_wrap_pw1pw2                    535 11.5    0.004    0.005    3.379    3.553
 fft_wrap_pw1pw2_200                343 12.7    0.194    0.210    3.215    3.392
 fft3d_ps                           535 13.5    1.571    1.755    2.742    2.915
 xc_rho_set_and_dset_create          42 10.9    0.017    0.018    2.406    2.719
 xc_vxc_pw_create                    22  9.9    0.039    0.045    2.290    2.295
 qs_rho_update_rho                   42  6.0    0.000    0.000    1.879    1.879
 calculate_rho_elec                  42  7.0    0.024    0.027    1.879    1.879
 density_rs2pw                       42  8.0    0.002    0.002    1.578    1.646
 xc_functional_eval                  42 11.9    0.000    0.000    1.116    1.417
 pbe_lda_eval                        42 12.9    1.116    1.417    1.116    1.417
 xc_exc_calc                         20 10.0    0.009    0.010    1.308    1.308
 mp_alltoall_z22v                   535 15.5    0.931    1.111    0.931    1.111
 rs_pw_transfer                     258 10.0    0.003    0.003    1.018    1.062
 yz_to_x                            257 13.7    0.072    0.083    0.565    0.762
 sum_up_and_integrate                22  8.9    0.004    0.004    0.757    0.757
 integrate_v_rspace                  22  9.9    0.000    0.001    0.753    0.754
 x_to_yz                            278 15.1    0.161    0.189    0.598    0.712
 qs_scf_new_mos                      41  6.0    0.000    0.000    0.676    0.677
 qs_scf_loop_do_ot                   41  7.0    0.000    0.000    0.676    0.677
 ot_scf_mini                         41  8.0    0.001    0.001    0.636    0.637
 potential_pw2rs                     22 10.9    0.001    0.001    0.573    0.573
 dbcsr_multiply_generic             633 10.9    0.017    0.019    0.558    0.564
 rs_pw_transfer_RS2PW_200            43 10.0    0.212    0.234    0.493    0.536
 grid_collocate_task_list            42  8.0    0.232    0.460    0.232    0.460
 mp_sum_d                          1159  8.0    0.256    0.424    0.256    0.424
 mp_waitany                        1980 11.9    0.319    0.374    0.319    0.374
 ot_mini                             41  9.0    0.000    0.000    0.293    0.294
 mp_waitall_1                     40128 14.7    0.222    0.249    0.222    0.249
 qs_ot_get_p                         42  9.0    0.000    0.000    0.243    0.246
 qs_ot_get_derivative                21 10.0    0.000    0.000    0.245    0.246
 pw_scatter_p                       278 14.1    0.221    0.226    0.221    0.226
 multiply_cannon                    633 11.9    0.033    0.036    0.211    0.221
 make_m2s                          1266 11.9    0.013    0.015    0.207    0.215
 rs_pw_transfer_PW2RS_200            23 12.7    0.119    0.126    0.207    0.213
 pw_gather_p                        257 12.7    0.206    0.212    0.206    0.212
 qs_ks_update_qs_env_forces           1  3.0    0.000    0.000    0.193    0.193
 qs_ot_get_derivative_diag           20 11.0    0.000    0.000    0.185    0.186
 mp_alltoall_d11v                   650 13.0    0.161    0.185    0.161    0.185
 init_scf_loop                        1  5.0    0.000    0.000    0.182    0.182
 grid_integrate_task_list            22 10.9    0.042    0.177    0.042    0.177
 qs_ot_p2m_diag                      41 10.0    0.001    0.001    0.170    0.172
 rs_gather_matrices                  22 10.9    0.000    0.000    0.138    0.162
 -------------------------------------------------------------------------------

 The number of warnings for this run is : 2
 
 -------------------------------------------------------------------------------
  **** **** ******  **  PROGRAM ENDED AT                 2021-10-27 10:31:22.450
 ***** ** ***  *** **   PROGRAM RAN ON                                    node10
 **    ****   ******    PROGRAM RAN BY                                   lujunbo
 ***** **    ** ** **   PROGRAM PROCESS ID                                149953
  **** **  *******  **  PROGRAM STOPPED IN /home/lujunbo/WORK/deepmd/c2h6/mtd/tr
                                           ain_4_sys/cp2k_md/sys_4/data/task_42
