 DBCSR| CPU Multiplication driver                                           XSMM
 DBCSR| Multrec recursion limit                                              512
 DBCSR| Multiplication stack size                                           1000
 DBCSR| Maximum elements for images                                    UNLIMITED
 DBCSR| Multiplicative factor virtual images                                   1
 DBCSR| Use multiplication densification                                       T
 DBCSR| Multiplication size stacks                                             3
 DBCSR| Use memory pool for CPU allocation                                     F
 DBCSR| Number of 3D layers                                               SINGLE
 DBCSR| Use MPI memory allocation                                              F
 DBCSR| Use RMA algorithm                                                      F
 DBCSR| Use Communication thread                                               T
 DBCSR| Communication thread load                                             87
 DBCSR| MPI: My node id                                                        0
 DBCSR| MPI: Number of nodes                                                  24
 DBCSR| OMP: Current number of threads                                         1
 DBCSR| OMP: Max number of threads                                             1
 DBCSR| Split modifier for TAS multiplication algorithm                  1.0E+00


  **** **** ******  **  PROGRAM STARTED AT               2021-10-27 13:36:38.783
 ***** ** ***  *** **   PROGRAM STARTED ON                                node10
 **    ****   ******    PROGRAM STARTED BY                               lujunbo
 ***** **    ** ** **   PROGRAM PROCESS ID                                260387
  **** **  *******  **  PROGRAM STARTED IN /home/lujunbo/WORK/deepmd/c2h6/mtd/tr
                                           ain_4_sys/cp2k_md/sys_4/data/task_146
                                           7

 CP2K| version string:                                          CP2K version 8.2
 CP2K| source code revision number:                                  git:310b7ab
 CP2K| cp2kflags: omp libint fftw3 libxc elpa parallel mpi3 scalapack xsmm plume
 CP2K|            d2 spglib mkl libvori libbqb
 CP2K| is freely available from                            https://www.cp2k.org/
 CP2K| Program compiled at                          Tue Jun  1 15:18:23 CST 2021
 CP2K| Program compiled on                                                   mgr
 CP2K| Program compiled for                                                local
 CP2K| Data directory path                       /home/lujunbo/bin/cp2k-8.2/data
 CP2K| Input file name                                                 input.inp

 GLOBAL| Force Environment number                                              1
 GLOBAL| Basis set file name            /home/lujunbo/bin/cp2k-8.2/data/BASIS_MO
 GLOBAL| Potential file name            /home/lujunbo/bin/cp2k-8.2/data/POTENTIA
 GLOBAL| MM Potential file name                                     MM_POTENTIAL
 GLOBAL| Coordinate file name                                      __STD_INPUT__
 GLOBAL| Method name                                                        CP2K
 GLOBAL| Project name                                                       cp2k
 GLOBAL| Run type                                                   ENERGY_FORCE
 GLOBAL| FFT library                                                       FFTW3
 GLOBAL| Diagonalization library                                            ELPA
 GLOBAL| Minimum number of eigenvectors for ELPA usage                        16
 GLOBAL| Orthonormality check for eigenvectors                          DISABLED
 GLOBAL| Matrix multiplication library                                    SCALAP
 GLOBAL| All-to-all communication in single precision                          F
 GLOBAL| FFTs using library dependent lengths                                  F
 GLOBAL| Grid backend                                                       AUTO
 GLOBAL| Global print level                                                  LOW
 GLOBAL| MPI I/O enabled                                                       T
 GLOBAL| Total number of message passing processes                            24
 GLOBAL| Number of threads for this process                                    1
 GLOBAL| This output is from process                                           0
 GLOBAL| CPU model name             Intel(R) Xeon(R) Platinum 9242 CPU @ 2.30GHz
 GLOBAL| CPUID                                                              1003

 MEMORY| system memory details [Kb]
 MEMORY|                        rank 0           min           max       average
 MEMORY| MemTotal            394609400     394609400     394609400     394609400
 MEMORY| MemFree             296190232     296190232     296190232     296190232
 MEMORY| Buffers                178432        178432        178432        178432
 MEMORY| Cached               62521860      62521860      62521860      62521860
 MEMORY| Slab                  1281588       1281588       1281588       1281588
 MEMORY| SReclaimable           590184        590184        590184        590184
 MEMORY| MemLikelyFree       359480708     359480708     359480708     359480708


 GENERATE|  Preliminary Number of Bonds generated:                             0
 GENERATE|  Achieved consistency in connectivity generation.

 *******************************************************************************
 *******************************************************************************
 **                                                                           **
 **     #####                         ##              ##                      **
 **    ##   ##            ##          ##              ##                      **
 **   ##     ##                       ##            ######                    **
 **   ##     ##  ##   ##  ##   #####  ##  ##   ####   ##    #####    #####    **
 **   ##     ##  ##   ##  ##  ##      ## ##   ##      ##   ##   ##  ##   ##   **
 **   ##  ## ##  ##   ##  ##  ##      ####     ###    ##   ######   ######    **
 **    ##  ###   ##   ##  ##  ##      ## ##      ##   ##   ##       ##        **
 **     #######   #####   ##   #####  ##  ##  ####    ##    #####   ##        **
 **           ##                                                    ##        **
 **                                                                           **
 **                                                ... make the atoms dance   **
 **                                                                           **
 **            Copyright (C) by CP2K developers group (2000-2021)             **
 **                      J. Chem. Phys. 152, 194103 (2020)                    **
 **                                                                           **
 *******************************************************************************


 TOTAL NUMBERS AND MAXIMUM NUMBERS

  Total number of            - Atomic kinds:                                   2
                             - Atoms:                                          8
                             - Shell sets:                                     8
                             - Shells:                                        28
                             - Primitive Cartesian functions:                 40
                             - Cartesian basis functions:                     58
                             - Spherical basis functions:                     56

  Maximum angular momentum of- Orbital basis functions:                        2
                             - Local part of the GTH pseudopotential:          2
                             - Non-local part of the GTH pseudopotential:      0


 SCF PARAMETERS         Density guess:                                   RESTART
                        --------------------------------------------------------
                        max_scf:                                             100
                        max_scf_history:                                       0
                        max_diis:                                              4
                        --------------------------------------------------------
                        eps_scf:                                        1.00E-06
                        eps_scf_history:                                0.00E+00
                        eps_diis:                                       1.00E-01
                        eps_eigval:                                     1.00E-05
                        --------------------------------------------------------
                        level_shift [a.u.]:                                 0.00
                        --------------------------------------------------------
                        Outer loop SCF in use 
                        No variables optimised in outer loop
                        eps_scf                                         1.00E-06
                        max_scf                                                6
                        No outer loop optimization
                        step_size                                       5.00E-01

 Number of electrons:                                                         14
 Number of occupied orbitals:                                                  7
 Number of molecular orbitals:                                                 7

 Number of orbital functions:                                                 56
 Number of independent orbital functions:                                     56

 Extrapolation method: initial_guess

 *** WARNING in qs_initial_guess.F:309 :: User requested to restart the    ***
 *** wavefunction from the file named: cp2k-RESTART.wfn. This file does    ***
 *** not exist. Please check the existence of the file or change properly  ***
 *** the value of the keyword WFN_RESTART_FILE_NAME. Calculation continues ***
 *** using ATOMIC GUESS.                                                   ***



 SCF WAVEFUNCTION OPTIMIZATION

  ----------------------------------- OT ---------------------------------------
  Minimizer      : CG                  : conjugate gradient
  Preconditioner : FULL_ALL            : diagonalization, state selective
  Precond_solver : DEFAULT
  Line search    : 2PNT                : 2 energies, one gradient
  stepsize       :    0.15000000                  energy_gap     :    0.08000000
  eps_taylor     :   0.10000E-15                  max_taylor     :             4
  ----------------------------------- OT ---------------------------------------

  Step     Update method      Time    Convergence         Total energy    Change
  ------------------------------------------------------------------------------
     1 OT CG       0.15E+00    0.2     0.24283630       -13.5385896072 -1.35E+01
     2 OT LS       0.82E-01    0.1                      -13.8235675976
     3 OT CG       0.82E-01    0.2     0.12347288       -14.6850486635 -1.15E+00
     4 OT LS       0.70E-01    0.1                      -14.8674855389
     5 OT CG       0.70E-01    0.2     0.07496758       -14.8736354434 -1.89E-01
     6 OT LS       0.47E-01    0.2                      -14.9132427229
     7 OT CG       0.47E-01    0.2     0.03091297       -14.9251602294 -5.15E-02
     8 OT LS       0.96E-01    0.1                      -14.9384057696
     9 OT CG       0.96E-01    0.3     0.01764246       -14.9429967043 -1.78E-02
    10 OT LS       0.93E-01    0.1                      -14.9486173511
    11 OT CG       0.93E-01    0.2     0.00738778       -14.9486235909 -5.63E-03
    12 OT LS       0.67E-01    0.1                      -14.9492320391
    13 OT CG       0.67E-01    0.2     0.00384795       -14.9493386004 -7.15E-04
    14 OT LS       0.65E-01    0.2                      -14.9495276550
    15 OT CG       0.65E-01    0.2     0.00169607       -14.9495277949 -1.89E-04
    16 OT LS       0.84E-01    0.1                      -14.9495726785
    17 OT CG       0.84E-01    0.2     0.00085219       -14.9495749980 -4.72E-05
    18 OT LS       0.85E-01    0.1                      -14.9495870500
    19 OT CG       0.85E-01    0.3     0.00041151       -14.9495870515 -1.21E-05
    20 OT LS       0.77E-01    0.1                      -14.9495895783
    21 OT CG       0.77E-01    0.2     0.00024010       -14.9495896043 -2.55E-06
    22 OT LS       0.63E-01    0.1                      -14.9495902757
    23 OT CG       0.63E-01    0.2     0.00010420       -14.9495903123 -7.08E-07
    24 OT LS       0.11E+00    0.1                      -14.9495904995
    25 OT CG       0.11E+00    0.2     0.00004709       -14.9495905359 -2.24E-07
    26 OT LS       0.88E-01    0.1                      -14.9495905728
    27 OT CG       0.88E-01    0.2     0.00003009       -14.9495905742 -3.84E-08
    28 OT LS       0.59E-01    0.1                      -14.9495905820
    29 OT CG       0.59E-01    0.2     0.00001309       -14.9495905846 -1.04E-08
    30 OT LS       0.11E+00    0.1                      -14.9495905875
    31 OT CG       0.11E+00    0.2     0.00000582       -14.9495905882 -3.59E-09
    32 OT LS       0.77E-01    0.2                      -14.9495905887
    33 OT CG       0.77E-01    0.2     0.00000292       -14.9495905887 -5.11E-10
    34 OT LS       0.67E-01    0.1                      -14.9495905888
    35 OT CG       0.67E-01    0.2     0.00000175       -14.9495905888 -1.12E-10
    36 OT LS       0.86E-01    0.1                      -14.9495905889
    37 OT CG       0.86E-01    0.2     0.00000066       -14.9495905889 -5.19E-11

  *** SCF run converged in    37 steps ***


  Electronic density on regular grids:        -14.0000000000        0.0000000000
  Core density on regular grids:               13.9999999989       -0.0000000011
  Total charge density on r-space grids:       -0.0000000010
  Total charge density g-space grids:          -0.0000000010

  Overlap energy of the core charge distribution:               0.00000160049487
  Self energy of the core charge distribution:                -35.13285960674677
  Core Hamiltonian energy:                                     11.38484036950902
  Hartree energy:                                              14.44993784795766
  Exchange-correlation energy:                                 -5.65151080011555

  Total energy:                                               -14.94959058890076

  outer SCF iter =    1 RMS gradient =   0.66E-06 energy =        -14.9495905889
  outer SCF loop converged in   1 iterations or   37 steps


 ENERGY| Total FORCE_EVAL ( QS ) energy [a.u.]:              -14.949590588909437

 -------------------------------------------------------------------------------
 -                                                                             -
 -                                DBCSR STATISTICS                             -
 -                                                                             -
 -------------------------------------------------------------------------------
 COUNTER                                    TOTAL       BLAS       SMM       ACC
 flops     7 x     7 x     7               137886       0.0%    100.0%      0.0%
 flops     5 x    13 x     7               212940       0.0%    100.0%      0.0%
 flops    13 x     5 x     7               212940       0.0%    100.0%      0.0%
 flops     7 x     7 x    13               242060       0.0%    100.0%      0.0%
 flops    13 x    13 x     7               276822       0.0%    100.0%      0.0%
 flops     7 x     7 x     5               279300       0.0%    100.0%      0.0%
 flops     5 x     5 x     7               286650       0.0%    100.0%      0.0%
 flops    26 x     7 x     7               336336       0.0%    100.0%      0.0%
 flops    26 x     7 x    13               378560       0.0%    100.0%      0.0%
 flops    10 x     7 x     7               388080       0.0%    100.0%      0.0%
 flops    26 x     7 x     5               436800       0.0%    100.0%      0.0%
 flops    10 x     7 x    13               436800       0.0%    100.0%      0.0%
 flops    10 x     7 x     5               504000       0.0%    100.0%      0.0%
 flops    13 x     7 x    13               615160       0.0%    100.0%      0.0%
 flops    13 x     7 x     5               709800       0.0%    100.0%      0.0%
 flops     5 x     7 x    13               709800       0.0%    100.0%      0.0%
 flops     5 x     7 x     5               819000       0.0%    100.0%      0.0%
 flops inhomo. stacks                           0       0.0%      0.0%      0.0%
 flops total                         6.982934E+06       0.0%    100.0%      0.0%
 flops max/rank                      3.412724E+06       0.0%    100.0%      0.0%
 matmuls inhomo. stacks                         0       0.0%      0.0%      0.0%
 matmuls total                               8333       0.0%    100.0%      0.0%
 number of processed stacks                  5785       0.0%    100.0%      0.0%
 average stack size                                     0.0       1.4       0.0
 marketing flops                     7.711327E+06
 -------------------------------------------------------------------------------
 # multiplications                            573
 max memory usage/rank             177.926144E+06
 # max total images/rank                        3
 # max 3D layers                                1
 # MPI messages exchanged                  261288
 MPI messages size (bytes):
  total size                        20.376160E+06
  min size                           0.000000E+00
  max size                           2.704000E+03
  average size                      77.983528E+00
 MPI breakdown and total messages size (bytes):
             size <=      128              229762                        0
       128 < size <=     8192               31526                 20376160
      8192 < size <=    32768                   0                        0
     32768 < size <=   131072                   0                        0
    131072 < size <=  4194304                   0                        0
   4194304 < size <= 16777216                   0                        0
  16777216 < size                               0                        0
 -------------------------------------------------------------------------------

 *** WARNING in dbcsr_mm.F:294 :: Using a non-square number of MPI ranks ***
 *** might lead to poor performance. Used ranks: 24 Suggested: 25 49     ***

 -------------------------------------------------------------------------------
 -                                                                             -
 -                      DBCSR MESSAGE PASSING PERFORMANCE                      -
 -                                                                             -
 -------------------------------------------------------------------------------
 ROUTINE             CALLS      AVE VOLUME [Bytes]
 MP_Bcast               18                     12.
 MP_Allreduce         2940                      8.
 MP_Alltoall          2291                   1363.
 MP_ISend            24062                    162.
 MP_IRecv            24062                    109.
 -------------------------------------------------------------------------------

 -------------------------------------------------------------------------------
 -                                                                             -
 -                                GRID STATISTICS                              -
 -                                                                             -
 -------------------------------------------------------------------------------
 LP    KERNEL             BACKEND                              COUNT     PERCENT
 2     collocate ortho    REF                                  25726      38.45%
 3     collocate ortho    REF                                  14288      21.35%
 2     integrate ortho    REF                                  12863      19.22%
 3     integrate ortho    REF                                   7144      10.68%
 4     collocate ortho    REF                                   3572       5.34%
 4     integrate ortho    REF                                   1786       2.67%
 5     integrate ortho    REF                                    677       1.01%
 6     integrate ortho    REF                                    376       0.56%
 0     collocate general  REF                                    192       0.29%
 3     integrate general  REF                                    192       0.29%
 7     integrate ortho    REF                                     94       0.14%
 -------------------------------------------------------------------------------

 MEMORY| Estimated peak process memory [MiB]                                 170

 -------------------------------------------------------------------------------
 -                                                                             -
 -                         MESSAGE PASSING PERFORMANCE                         -
 -                                                                             -
 -------------------------------------------------------------------------------

 ROUTINE             CALLS      AVE VOLUME [Bytes]
 MP_Group                4
 MP_Bcast              695                 529172.
 MP_Allreduce         2070                    166.
 MP_Sync                84
 MP_Alltoall           556                2992338.
 MP_ISendRecv         4002                  53808.
 MP_Wait              6042
 MP_comm_split          40
 MP_ISend             1800                 171663.
 MP_IRecv             1800                 171403.
 MP_Recv                 6                    896.
 -------------------------------------------------------------------------------


 -------------------------------------------------------------------------------
 -                                                                             -
 -                           R E F E R E N C E S                               -
 -                                                                             -
 -------------------------------------------------------------------------------
 
 CP2K version 8.2, the CP2K developers group (2021).
 CP2K is freely available from https://www.cp2k.org/ .

 Kuehne,Thomas D.; Iannuzzi,Marcella; Del Ben,Mauro;
 Rybkin,Vladimir V.; Seewald,Patrick; Stein,Frederick; Laino,Teodoro;
 Khaliullin,Rustam Z.; Schuett,Ole; Schiffmann,Florian; Golze,Dorothea;
 Wilhelm,Jan; Chulkov,Sergey; Bani-Hashemian,Mohammad Hossein;
 Weber,Valery; Borstnik,Urban; Taillefumier,Mathieu;
 Jakobovits,Alice Shoshana; Lazzaro,Alfio; Pabst,Hans; Mueller,Tiziano;
 Schade,Robert; Guidon,Manuel; Andermatt,Samuel; Holmberg,Nico;
 Schenter,Gregory K.; Hehn,Anna; Bussy,Augustin; Belleflamme,Fabian;
 Tabacchi,Gloria; Gloess,Andreas; Lass,Michael; Bethune,Iain;
 Mundy,Christopher J.; Plessl,Christian; Watkins,Matt;
 VandeVondele,Joost; Krack,Matthias; Hutter,Juerg. 
 The Journal of Chemical Physics, 152 (19), (2020). 
 CP2K: An electronic structure and molecular dynamics software package -
 Quickstep: Efficient and accurate electronic structure calculations.
 https://doi.org/10.1063/5.0007045

 Schuett, Ole; Messmer, Peter; Hutter, Juerg; VandeVondele, Joost. 
 Electronic Structure Calculations on Graphics Processing Units, John
 Wiley & Sons, Ltd, 173-190 (2016). 
 GPU-Accelerated Sparse Matrix-Matrix Multiplication for
 Linear Scaling Density Functional Theory.
 https://doi.org/10.1002/9781118670712.ch8

 Heinecke, A; Henry, G; Hutchinson, M; Pabst, H. 
 Proceedings of Intl. Supercomputing Conference, 981-991 (2016). 
 LIBXSMM: Accelerating Small Matrix Multiplications
 by Runtime Code Generation.
 https://doi.org/10.1109/SC.2016.83

 Borstnik, U; VandeVondele, J; Weber, V; Hutter, J. 
 PARALLEL COMPUTING, 40 (5-6), 47-58 (2014). 
 Sparse matrix multiplication: The distributed block-compressed sparse
 row library.
 https://doi.org/10.1016/j.parco.2014.03.012

 Hutter, J; Iannuzzi, M; Schiffmann, F; VandeVondele, J. 
 WIREs Comput Mol Sci., 4 (1), 15-25 (2014). 
 CP2K: atomistic simulations of condensed matter systems.
 https://doi.org/10.1002/wcms.1159

 Marek, A; Blum, V; Johanni, R; Havu, V; Lang, B; Auckenthaler, T;
 Heinecke, A; Bungartz, H; Lederer, H. 
 Journal of Physics: Condensed Matter, 26 (21), (2014). 
 The ELPA library: scalable parallel eigenvalue solutions for
 electronic structure
 theory and computational science.
 https://doi.org/10.1088/0953-8984/26/21/213201

 VandeVondele, J; Hutter, J. 
 JOURNAL OF CHEMICAL PHYSICS, 127 (11), 114105 (2007). 
 Gaussian basis sets for accurate calculations on molecular systems in
 gas and condensed phases.
 https://doi.org/10.1063/1.2770708

 Krack, M. 
 THEORETICAL CHEMISTRY ACCOUNTS, 114 (1-3), 145-152 (2005). 
 Pseudopotentials for H to Kr optimized for gradient-corrected
 exchange-correlation functionals.
 https://doi.org/10.1007/s00214-005-0655-y

 VandeVondele, J; Krack, M; Mohamed, F; Parrinello, M; Chassaing, T;
 Hutter, J. COMPUTER PHYSICS COMMUNICATIONS, 167 (2), 103-128 (2005). 
 QUICKSTEP: Fast and accurate density functional calculations using a
 mixed Gaussian and plane waves approach.
 https://doi.org/10.1016/j.cpc.2004.12.014

 Frigo, M; Johnson, SG. 
 PROCEEDINGS OF THE IEEE, 93 (2), 216-231 (2005). 
 The design and implementation of FFTW3.
 https://doi.org/10.1109/JPROC.2004.840301

 VandeVondele, J; Hutter, J. 
 JOURNAL OF CHEMICAL PHYSICS, 118 (10), 4365-4369 (2003). 
 An efficient orbital transformation method for electronic structure
 calculations.
 https://doi.org/10.1063/1.1543154

 Hartwigsen, C; Goedecker, S; Hutter, J. 
 PHYSICAL REVIEW B, 58 (7), 3641-3662 (1998). 
 Relativistic separable dual-space Gaussian pseudopotentials from H to Rn.
 https://doi.org/10.1103/PhysRevB.58.3641

 Lippert, G; Hutter, J; Parrinello, M. 
 MOLECULAR PHYSICS, 92 (3), 477-487 (1997). 
 A hybrid Gaussian and plane wave density functional scheme.
 https://doi.org/10.1080/002689797170220

 Perdew, JP; Burke, K; Ernzerhof, M. 
 PHYSICAL REVIEW LETTERS, 77 (18), 3865-3868 (1996). 
 Generalized gradient approximation made simple.
 https://doi.org/10.1103/PhysRevLett.77.3865

 Goedecker, S; Teter, M; Hutter, J. 
 PHYSICAL REVIEW B, 54 (3), 1703-1710 (1996). 
 Separable dual-space Gaussian pseudopotentials.
 https://doi.org/10.1103/PhysRevB.54.1703


 -------------------------------------------------------------------------------
 -                                                                             -
 -                                T I M I N G                                  -
 -                                                                             -
 -------------------------------------------------------------------------------
 SUBROUTINE                       CALLS  ASD         SELF TIME        TOTAL TIME
                                MAXIMUM       AVERAGE  MAXIMUM  AVERAGE  MAXIMUM
 CP2K                                 1  1.0    0.005    0.012    7.078    7.080
 qs_forces                            1  2.0    0.000    0.000    6.977    6.977
 qs_energies                          1  3.0    0.000    0.000    6.802    6.802
 scf_env_do_scf                       1  4.0    0.000    0.000    6.677    6.677
 scf_env_do_scf_inner_loop           37  5.0    0.001    0.004    6.494    6.494
 rebuild_ks_matrix                   38  6.9    0.000    0.000    4.461    4.463
 qs_ks_build_kohn_sham_matrix        38  7.9    0.004    0.004    4.461    4.463
 qs_ks_update_qs_env                 38  6.0    0.000    0.000    4.295    4.296
 pw_transfer                        561 10.4    0.025    0.038    3.224    3.422
 qs_vxc_create                       38  8.9    0.000    0.000    3.388    3.393
 fft_wrap_pw1pw2                    485 11.5    0.004    0.004    3.177    3.377
 fft_wrap_pw1pw2_200                311 12.7    0.181    0.197    3.014    3.215
 fft3d_ps                           485 13.5    1.427    1.640    2.595    2.788
 xc_rho_set_and_dset_create          38 10.9    0.015    0.016    2.208    2.543
 xc_vxc_pw_create                    20  9.8    0.036    0.042    2.159    2.164
 qs_rho_update_rho                   38  6.0    0.000    0.000    1.759    1.761
 calculate_rho_elec                  38  7.0    0.022    0.024    1.759    1.761
 density_rs2pw                       38  8.0    0.002    0.002    1.473    1.523
 xc_functional_eval                  38 11.9    0.000    0.000    0.995    1.315
 pbe_lda_eval                        38 12.9    0.995    1.315    0.995    1.315
 xc_exc_calc                         18 10.0    0.008    0.013    1.229    1.229
 mp_alltoall_z22v                   485 15.5    0.939    1.164    0.939    1.164
 rs_pw_transfer                     234 10.0    0.003    0.003    0.972    1.015
 yz_to_x                            233 13.7    0.072    0.083    0.565    0.776
 sum_up_and_integrate                20  8.8    0.004    0.005    0.709    0.709
 integrate_v_rspace                  20  9.8    0.000    0.000    0.705    0.706
 qs_scf_new_mos                      37  6.0    0.000    0.000    0.644    0.645
 qs_scf_loop_do_ot                   37  7.0    0.000    0.000    0.644    0.644
 x_to_yz                            252 15.1    0.149    0.173    0.595    0.617
 ot_scf_mini                         37  8.0    0.000    0.001    0.609    0.610
 potential_pw2rs                     20 10.8    0.001    0.001    0.547    0.547
 dbcsr_multiply_generic             573 10.9    0.015    0.017    0.536    0.540
 rs_pw_transfer_RS2PW_200            39  9.9    0.206    0.221    0.461    0.503
 mp_sum_d                          1086  7.8    0.294    0.469    0.294    0.469
 grid_collocate_task_list            38  8.0    0.221    0.426    0.221    0.426
 mp_waitany                        1800 11.9    0.290    0.339    0.290    0.339
 ot_mini                             37  9.0    0.000    0.000    0.254    0.255
 mp_waitall_1                     36330 14.7    0.228    0.247    0.228    0.247
 qs_ot_get_p                         38  8.9    0.000    0.000    0.226    0.229
 pw_scatter_p                       252 14.1    0.204    0.215    0.204    0.215
 qs_ot_get_derivative                19 10.0    0.000    0.000    0.213    0.214
 make_m2s                          1146 11.9    0.012    0.014    0.193    0.202
 multiply_cannon                    573 11.9    0.030    0.032    0.187    0.199
 rs_pw_transfer_PW2RS_200            21 12.6    0.107    0.112    0.189    0.195
 pw_gather_p                        233 12.7    0.183    0.188    0.183    0.188
 init_scf_loop                        1  5.0    0.000    0.000    0.182    0.182
 qs_ks_update_qs_env_forces           1  3.0    0.000    0.000    0.169    0.169
 mp_alltoall_d11v                   596 13.0    0.140    0.163    0.140    0.163
 qs_ot_get_derivative_diag           18 11.0    0.000    0.000    0.158    0.159
 qs_ot_p2m_diag                      37 10.0    0.001    0.001    0.157    0.159
 grid_integrate_task_list            20 10.8    0.038    0.154    0.038    0.154
 rs_pw_transfer_RS2PW_70             38 10.0    0.044    0.056    0.143    0.150
 make_images                       1146 12.9    0.019    0.022    0.137    0.143
 rs_gather_matrices                  20 10.8    0.000    0.000    0.120    0.142
 -------------------------------------------------------------------------------

 The number of warnings for this run is : 2
 
 -------------------------------------------------------------------------------
  **** **** ******  **  PROGRAM ENDED AT                 2021-10-27 13:36:46.382
 ***** ** ***  *** **   PROGRAM RAN ON                                    node10
 **    ****   ******    PROGRAM RAN BY                                   lujunbo
 ***** **    ** ** **   PROGRAM PROCESS ID                                260387
  **** **  *******  **  PROGRAM STOPPED IN /home/lujunbo/WORK/deepmd/c2h6/mtd/tr
                                           ain_4_sys/cp2k_md/sys_4/data/task_146
                                           7
