 DBCSR| CPU Multiplication driver                                           XSMM
 DBCSR| Multrec recursion limit                                              512
 DBCSR| Multiplication stack size                                           1000
 DBCSR| Maximum elements for images                                    UNLIMITED
 DBCSR| Multiplicative factor virtual images                                   1
 DBCSR| Use multiplication densification                                       T
 DBCSR| Multiplication size stacks                                             3
 DBCSR| Use memory pool for CPU allocation                                     F
 DBCSR| Number of 3D layers                                               SINGLE
 DBCSR| Use MPI memory allocation                                              F
 DBCSR| Use RMA algorithm                                                      F
 DBCSR| Use Communication thread                                               T
 DBCSR| Communication thread load                                             87
 DBCSR| MPI: My node id                                                        0
 DBCSR| MPI: Number of nodes                                                  24
 DBCSR| OMP: Current number of threads                                         1
 DBCSR| OMP: Max number of threads                                             1
 DBCSR| Split modifier for TAS multiplication algorithm                  1.0E+00


  **** **** ******  **  PROGRAM STARTED AT               2021-10-27 13:57:15.511
 ***** ** ***  *** **   PROGRAM STARTED ON                                node10
 **    ****   ******    PROGRAM STARTED BY                               lujunbo
 ***** **    ** ** **   PROGRAM PROCESS ID                                272774
  **** **  *******  **  PROGRAM STARTED IN /home/lujunbo/WORK/deepmd/c2h6/mtd/tr
                                           ain_4_sys/cp2k_md/sys_4/data/task_162
                                           7

 CP2K| version string:                                          CP2K version 8.2
 CP2K| source code revision number:                                  git:310b7ab
 CP2K| cp2kflags: omp libint fftw3 libxc elpa parallel mpi3 scalapack xsmm plume
 CP2K|            d2 spglib mkl libvori libbqb
 CP2K| is freely available from                            https://www.cp2k.org/
 CP2K| Program compiled at                          Tue Jun  1 15:18:23 CST 2021
 CP2K| Program compiled on                                                   mgr
 CP2K| Program compiled for                                                local
 CP2K| Data directory path                       /home/lujunbo/bin/cp2k-8.2/data
 CP2K| Input file name                                                 input.inp

 GLOBAL| Force Environment number                                              1
 GLOBAL| Basis set file name            /home/lujunbo/bin/cp2k-8.2/data/BASIS_MO
 GLOBAL| Potential file name            /home/lujunbo/bin/cp2k-8.2/data/POTENTIA
 GLOBAL| MM Potential file name                                     MM_POTENTIAL
 GLOBAL| Coordinate file name                                      __STD_INPUT__
 GLOBAL| Method name                                                        CP2K
 GLOBAL| Project name                                                       cp2k
 GLOBAL| Run type                                                   ENERGY_FORCE
 GLOBAL| FFT library                                                       FFTW3
 GLOBAL| Diagonalization library                                            ELPA
 GLOBAL| Minimum number of eigenvectors for ELPA usage                        16
 GLOBAL| Orthonormality check for eigenvectors                          DISABLED
 GLOBAL| Matrix multiplication library                                    SCALAP
 GLOBAL| All-to-all communication in single precision                          F
 GLOBAL| FFTs using library dependent lengths                                  F
 GLOBAL| Grid backend                                                       AUTO
 GLOBAL| Global print level                                                  LOW
 GLOBAL| MPI I/O enabled                                                       T
 GLOBAL| Total number of message passing processes                            24
 GLOBAL| Number of threads for this process                                    1
 GLOBAL| This output is from process                                           0
 GLOBAL| CPU model name             Intel(R) Xeon(R) Platinum 9242 CPU @ 2.30GHz
 GLOBAL| CPUID                                                              1003

 MEMORY| system memory details [Kb]
 MEMORY|                        rank 0           min           max       average
 MEMORY| MemTotal            394609400     394609400     394609400     394609400
 MEMORY| MemFree             297588508     297588508     297588508     297588508
 MEMORY| Buffers                178568        178568        178568        178568
 MEMORY| Cached               62538240      62538240      62538240      62538240
 MEMORY| Slab                  1282112       1282112       1282112       1282112
 MEMORY| SReclaimable           591616        591616        591616        591616
 MEMORY| MemLikelyFree       360896932     360896932     360896932     360896932


 GENERATE|  Preliminary Number of Bonds generated:                             0
 GENERATE|  Achieved consistency in connectivity generation.

 *******************************************************************************
 *******************************************************************************
 **                                                                           **
 **     #####                         ##              ##                      **
 **    ##   ##            ##          ##              ##                      **
 **   ##     ##                       ##            ######                    **
 **   ##     ##  ##   ##  ##   #####  ##  ##   ####   ##    #####    #####    **
 **   ##     ##  ##   ##  ##  ##      ## ##   ##      ##   ##   ##  ##   ##   **
 **   ##  ## ##  ##   ##  ##  ##      ####     ###    ##   ######   ######    **
 **    ##  ###   ##   ##  ##  ##      ## ##      ##   ##   ##       ##        **
 **     #######   #####   ##   #####  ##  ##  ####    ##    #####   ##        **
 **           ##                                                    ##        **
 **                                                                           **
 **                                                ... make the atoms dance   **
 **                                                                           **
 **            Copyright (C) by CP2K developers group (2000-2021)             **
 **                      J. Chem. Phys. 152, 194103 (2020)                    **
 **                                                                           **
 *******************************************************************************


 TOTAL NUMBERS AND MAXIMUM NUMBERS

  Total number of            - Atomic kinds:                                   2
                             - Atoms:                                          8
                             - Shell sets:                                     8
                             - Shells:                                        28
                             - Primitive Cartesian functions:                 40
                             - Cartesian basis functions:                     58
                             - Spherical basis functions:                     56

  Maximum angular momentum of- Orbital basis functions:                        2
                             - Local part of the GTH pseudopotential:          2
                             - Non-local part of the GTH pseudopotential:      0


 SCF PARAMETERS         Density guess:                                   RESTART
                        --------------------------------------------------------
                        max_scf:                                             100
                        max_scf_history:                                       0
                        max_diis:                                              4
                        --------------------------------------------------------
                        eps_scf:                                        1.00E-06
                        eps_scf_history:                                0.00E+00
                        eps_diis:                                       1.00E-01
                        eps_eigval:                                     1.00E-05
                        --------------------------------------------------------
                        level_shift [a.u.]:                                 0.00
                        --------------------------------------------------------
                        Outer loop SCF in use 
                        No variables optimised in outer loop
                        eps_scf                                         1.00E-06
                        max_scf                                                6
                        No outer loop optimization
                        step_size                                       5.00E-01

 Number of electrons:                                                         14
 Number of occupied orbitals:                                                  7
 Number of molecular orbitals:                                                 7

 Number of orbital functions:                                                 56
 Number of independent orbital functions:                                     56

 Extrapolation method: initial_guess

 *** WARNING in qs_initial_guess.F:309 :: User requested to restart the    ***
 *** wavefunction from the file named: cp2k-RESTART.wfn. This file does    ***
 *** not exist. Please check the existence of the file or change properly  ***
 *** the value of the keyword WFN_RESTART_FILE_NAME. Calculation continues ***
 *** using ATOMIC GUESS.                                                   ***



 SCF WAVEFUNCTION OPTIMIZATION

  ----------------------------------- OT ---------------------------------------
  Minimizer      : CG                  : conjugate gradient
  Preconditioner : FULL_ALL            : diagonalization, state selective
  Precond_solver : DEFAULT
  Line search    : 2PNT                : 2 energies, one gradient
  stepsize       :    0.15000000                  energy_gap     :    0.08000000
  eps_taylor     :   0.10000E-15                  max_taylor     :             4
  ----------------------------------- OT ---------------------------------------

  Step     Update method      Time    Convergence         Total energy    Change
  ------------------------------------------------------------------------------
     1 OT CG       0.15E+00    0.2     0.20389881       -14.0632768266 -1.41E+01
     2 OT LS       0.81E-01    0.1                      -14.2357887536
     3 OT CG       0.81E-01    0.2     0.08419010       -14.7659011279 -7.03E-01
     4 OT LS       0.12E+00    0.1                      -14.9036498430
     5 OT CG       0.12E+00    0.2     0.03896308       -14.9174295392 -1.52E-01
     6 OT LS       0.92E-01    0.1                      -14.9431293948
     7 OT CG       0.92E-01    0.2     0.01374135       -14.9448344745 -2.74E-02
     8 OT LS       0.11E+00    0.1                      -14.9487231857
     9 OT CG       0.11E+00    0.2     0.00822711       -14.9487999467 -3.97E-03
    10 OT LS       0.75E-01    0.1                      -14.9496003982
    11 OT CG       0.75E-01    0.2     0.00237423       -14.9497873690 -9.87E-04
    12 OT LS       0.13E+00    0.1                      -14.9499035692
    13 OT CG       0.13E+00    0.2     0.00094909       -14.9499270262 -1.40E-04
    14 OT LS       0.10E+00    0.1                      -14.9499443741
    15 OT CG       0.10E+00    0.3     0.00043444       -14.9499452804 -1.83E-05
    16 OT LS       0.76E-01    0.1                      -14.9499477376
    17 OT CG       0.76E-01    0.2     0.00020996       -14.9499480976 -2.82E-06
    18 OT LS       0.12E+00    0.1                      -14.9499490076
    19 OT CG       0.12E+00    0.2     0.00007131       -14.9499491639 -1.07E-06
    20 OT LS       0.12E+00    0.1                      -14.9499492856
    21 OT CG       0.12E+00    0.2     0.00003176       -14.9499492856 -1.22E-07
    22 OT LS       0.85E-01    0.1                      -14.9499492993
    23 OT CG       0.85E-01    0.2     0.00001772       -14.9499493025 -1.69E-08
    24 OT LS       0.96E-01    0.1                      -14.9499493083
    25 OT CG       0.96E-01    0.2     0.00000608       -14.9499493084 -5.94E-09
    26 OT LS       0.12E+00    0.1                      -14.9499493092
    27 OT CG       0.12E+00    0.2     0.00000263       -14.9499493092 -8.41E-10
    28 OT LS       0.11E+00    0.1                      -14.9499493094
    29 OT CG       0.11E+00    0.3     0.00000124       -14.9499493094 -1.51E-10
    30 OT LS       0.75E-01    0.1                      -14.9499493094
    31 OT CG       0.75E-01    0.3     0.00000060       -14.9499493094 -2.27E-11

  *** SCF run converged in    31 steps ***


  Electronic density on regular grids:        -14.0000000000        0.0000000000
  Core density on regular grids:               13.9999999989       -0.0000000011
  Total charge density on r-space grids:       -0.0000000010
  Total charge density g-space grids:          -0.0000000010

  Overlap energy of the core charge distribution:               0.00000169882466
  Self energy of the core charge distribution:                -35.13285960674677
  Core Hamiltonian energy:                                     11.40961132674309
  Hartree energy:                                              14.43230529658650
  Exchange-correlation energy:                                 -5.65900802482622

  Total energy:                                               -14.94994930941875

  outer SCF iter =    1 RMS gradient =   0.60E-06 energy =        -14.9499493094
  outer SCF loop converged in   1 iterations or   31 steps


 ENERGY| Total FORCE_EVAL ( QS ) energy [a.u.]:              -14.949949309426074

 -------------------------------------------------------------------------------
 -                                                                             -
 -                                DBCSR STATISTICS                             -
 -                                                                             -
 -------------------------------------------------------------------------------
 COUNTER                                    TOTAL       BLAS       SMM       ACC
 flops     7 x     7 x     7               115248       0.0%    100.0%      0.0%
 flops     5 x    13 x     7               180180       0.0%    100.0%      0.0%
 flops    13 x     5 x     7               180180       0.0%    100.0%      0.0%
 flops     7 x     7 x    13               203840       0.0%    100.0%      0.0%
 flops    13 x    13 x     7               234234       0.0%    100.0%      0.0%
 flops     7 x     7 x     5               235200       0.0%    100.0%      0.0%
 flops     5 x     5 x     7               242550       0.0%    100.0%      0.0%
 flops    26 x     7 x     7               282828       0.0%    100.0%      0.0%
 flops    26 x     7 x    13               321776       0.0%    100.0%      0.0%
 flops    10 x     7 x     7               326340       0.0%    100.0%      0.0%
 flops    26 x     7 x     5               371280       0.0%    100.0%      0.0%
 flops    10 x     7 x    13               371280       0.0%    100.0%      0.0%
 flops    10 x     7 x     5               428400       0.0%    100.0%      0.0%
 flops    13 x     7 x    13               529984       0.0%    100.0%      0.0%
 flops    13 x     7 x     5               611520       0.0%    100.0%      0.0%
 flops     5 x     7 x    13               611520       0.0%    100.0%      0.0%
 flops     5 x     7 x     5               705600       0.0%    100.0%      0.0%
 flops inhomo. stacks                           0       0.0%      0.0%      0.0%
 flops total                         5.951960E+06       0.0%    100.0%      0.0%
 flops max/rank                      2.905910E+06       0.0%    100.0%      0.0%
 matmuls inhomo. stacks                         0       0.0%      0.0%      0.0%
 matmuls total                               7112       0.0%    100.0%      0.0%
 number of processed stacks                  4924       0.0%    100.0%      0.0%
 average stack size                                     0.0       1.4       0.0
 marketing flops                     6.569132E+06
 -------------------------------------------------------------------------------
 # multiplications                            483
 max memory usage/rank             177.410048E+06
 # max total images/rank                        3
 # max 3D layers                                1
 # MPI messages exchanged                  220248
 MPI messages size (bytes):
  total size                        17.369128E+06
  min size                           0.000000E+00
  max size                           2.704000E+03
  average size                      78.861687E+00
 MPI breakdown and total messages size (bytes):
             size <=      128              193417                        0
       128 < size <=     8192               26831                 17369128
      8192 < size <=    32768                   0                        0
     32768 < size <=   131072                   0                        0
    131072 < size <=  4194304                   0                        0
   4194304 < size <= 16777216                   0                        0
  16777216 < size                               0                        0
 -------------------------------------------------------------------------------

 *** WARNING in dbcsr_mm.F:294 :: Using a non-square number of MPI ranks ***
 *** might lead to poor performance. Used ranks: 24 Suggested: 25 49     ***

 -------------------------------------------------------------------------------
 -                                                                             -
 -                      DBCSR MESSAGE PASSING PERFORMANCE                      -
 -                                                                             -
 -------------------------------------------------------------------------------
 ROUTINE             CALLS      AVE VOLUME [Bytes]
 MP_Bcast               18                     12.
 MP_Allreduce         2484                      8.
 MP_Alltoall          1976                   1382.
 MP_ISend            20282                    163.
 MP_IRecv            20282                    109.
 -------------------------------------------------------------------------------

 -------------------------------------------------------------------------------
 -                                                                             -
 -                                GRID STATISTICS                              -
 -                                                                             -
 -------------------------------------------------------------------------------
 LP    KERNEL             BACKEND                              COUNT     PERCENT
 2     collocate ortho    REF                                  21600      38.24%
 3     collocate ortho    REF                                  12032      21.30%
 2     integrate ortho    REF                                  10800      19.12%
 3     integrate ortho    REF                                   6016      10.65%
 4     collocate ortho    REF                                   3008       5.32%
 4     integrate ortho    REF                                   1504       2.66%
 5     integrate ortho    REF                                    675       1.19%
 6     integrate ortho    REF                                    376       0.67%
 0     collocate general  REF                                    192       0.34%
 3     integrate general  REF                                    192       0.34%
 7     integrate ortho    REF                                     94       0.17%
 -------------------------------------------------------------------------------

 MEMORY| Estimated peak process memory [MiB]                                 170

 -------------------------------------------------------------------------------
 -                                                                             -
 -                         MESSAGE PASSING PERFORMANCE                         -
 -                                                                             -
 -------------------------------------------------------------------------------

 ROUTINE             CALLS      AVE VOLUME [Bytes]
 MP_Group                4
 MP_Bcast              587                 626441.
 MP_Allreduce         1785                    188.
 MP_Sync                72
 MP_Alltoall           472                2980730.
 MP_ISendRecv         3381                  53808.
 MP_Wait              5115
 MP_comm_split          34
 MP_ISend             1530                 171661.
 MP_IRecv             1530                 171406.
 MP_Recv                 6                    896.
 -------------------------------------------------------------------------------


 -------------------------------------------------------------------------------
 -                                                                             -
 -                           R E F E R E N C E S                               -
 -                                                                             -
 -------------------------------------------------------------------------------
 
 CP2K version 8.2, the CP2K developers group (2021).
 CP2K is freely available from https://www.cp2k.org/ .

 Kuehne,Thomas D.; Iannuzzi,Marcella; Del Ben,Mauro;
 Rybkin,Vladimir V.; Seewald,Patrick; Stein,Frederick; Laino,Teodoro;
 Khaliullin,Rustam Z.; Schuett,Ole; Schiffmann,Florian; Golze,Dorothea;
 Wilhelm,Jan; Chulkov,Sergey; Bani-Hashemian,Mohammad Hossein;
 Weber,Valery; Borstnik,Urban; Taillefumier,Mathieu;
 Jakobovits,Alice Shoshana; Lazzaro,Alfio; Pabst,Hans; Mueller,Tiziano;
 Schade,Robert; Guidon,Manuel; Andermatt,Samuel; Holmberg,Nico;
 Schenter,Gregory K.; Hehn,Anna; Bussy,Augustin; Belleflamme,Fabian;
 Tabacchi,Gloria; Gloess,Andreas; Lass,Michael; Bethune,Iain;
 Mundy,Christopher J.; Plessl,Christian; Watkins,Matt;
 VandeVondele,Joost; Krack,Matthias; Hutter,Juerg. 
 The Journal of Chemical Physics, 152 (19), (2020). 
 CP2K: An electronic structure and molecular dynamics software package -
 Quickstep: Efficient and accurate electronic structure calculations.
 https://doi.org/10.1063/5.0007045

 Schuett, Ole; Messmer, Peter; Hutter, Juerg; VandeVondele, Joost. 
 Electronic Structure Calculations on Graphics Processing Units, John
 Wiley & Sons, Ltd, 173-190 (2016). 
 GPU-Accelerated Sparse Matrix-Matrix Multiplication for
 Linear Scaling Density Functional Theory.
 https://doi.org/10.1002/9781118670712.ch8

 Heinecke, A; Henry, G; Hutchinson, M; Pabst, H. 
 Proceedings of Intl. Supercomputing Conference, 981-991 (2016). 
 LIBXSMM: Accelerating Small Matrix Multiplications
 by Runtime Code Generation.
 https://doi.org/10.1109/SC.2016.83

 Borstnik, U; VandeVondele, J; Weber, V; Hutter, J. 
 PARALLEL COMPUTING, 40 (5-6), 47-58 (2014). 
 Sparse matrix multiplication: The distributed block-compressed sparse
 row library.
 https://doi.org/10.1016/j.parco.2014.03.012

 Hutter, J; Iannuzzi, M; Schiffmann, F; VandeVondele, J. 
 WIREs Comput Mol Sci., 4 (1), 15-25 (2014). 
 CP2K: atomistic simulations of condensed matter systems.
 https://doi.org/10.1002/wcms.1159

 Marek, A; Blum, V; Johanni, R; Havu, V; Lang, B; Auckenthaler, T;
 Heinecke, A; Bungartz, H; Lederer, H. 
 Journal of Physics: Condensed Matter, 26 (21), (2014). 
 The ELPA library: scalable parallel eigenvalue solutions for
 electronic structure
 theory and computational science.
 https://doi.org/10.1088/0953-8984/26/21/213201

 VandeVondele, J; Hutter, J. 
 JOURNAL OF CHEMICAL PHYSICS, 127 (11), 114105 (2007). 
 Gaussian basis sets for accurate calculations on molecular systems in
 gas and condensed phases.
 https://doi.org/10.1063/1.2770708

 Krack, M. 
 THEORETICAL CHEMISTRY ACCOUNTS, 114 (1-3), 145-152 (2005). 
 Pseudopotentials for H to Kr optimized for gradient-corrected
 exchange-correlation functionals.
 https://doi.org/10.1007/s00214-005-0655-y

 VandeVondele, J; Krack, M; Mohamed, F; Parrinello, M; Chassaing, T;
 Hutter, J. COMPUTER PHYSICS COMMUNICATIONS, 167 (2), 103-128 (2005). 
 QUICKSTEP: Fast and accurate density functional calculations using a
 mixed Gaussian and plane waves approach.
 https://doi.org/10.1016/j.cpc.2004.12.014

 Frigo, M; Johnson, SG. 
 PROCEEDINGS OF THE IEEE, 93 (2), 216-231 (2005). 
 The design and implementation of FFTW3.
 https://doi.org/10.1109/JPROC.2004.840301

 VandeVondele, J; Hutter, J. 
 JOURNAL OF CHEMICAL PHYSICS, 118 (10), 4365-4369 (2003). 
 An efficient orbital transformation method for electronic structure
 calculations.
 https://doi.org/10.1063/1.1543154

 Hartwigsen, C; Goedecker, S; Hutter, J. 
 PHYSICAL REVIEW B, 58 (7), 3641-3662 (1998). 
 Relativistic separable dual-space Gaussian pseudopotentials from H to Rn.
 https://doi.org/10.1103/PhysRevB.58.3641

 Lippert, G; Hutter, J; Parrinello, M. 
 MOLECULAR PHYSICS, 92 (3), 477-487 (1997). 
 A hybrid Gaussian and plane wave density functional scheme.
 https://doi.org/10.1080/002689797170220

 Perdew, JP; Burke, K; Ernzerhof, M. 
 PHYSICAL REVIEW LETTERS, 77 (18), 3865-3868 (1996). 
 Generalized gradient approximation made simple.
 https://doi.org/10.1103/PhysRevLett.77.3865

 Goedecker, S; Teter, M; Hutter, J. 
 PHYSICAL REVIEW B, 54 (3), 1703-1710 (1996). 
 Separable dual-space Gaussian pseudopotentials.
 https://doi.org/10.1103/PhysRevB.54.1703


 -------------------------------------------------------------------------------
 -                                                                             -
 -                                T I M I N G                                  -
 -                                                                             -
 -------------------------------------------------------------------------------
 SUBROUTINE                       CALLS  ASD         SELF TIME        TOTAL TIME
                                MAXIMUM       AVERAGE  MAXIMUM  AVERAGE  MAXIMUM
 CP2K                                 1  1.0    0.006    0.013    6.141    6.142
 qs_forces                            1  2.0    0.000    0.000    6.026    6.026
 qs_energies                          1  3.0    0.000    0.000    5.821    5.821
 scf_env_do_scf                       1  4.0    0.000    0.000    5.712    5.712
 scf_env_do_scf_inner_loop           31  5.0    0.001    0.003    5.528    5.529
 rebuild_ks_matrix                   32  6.9    0.000    0.000    3.867    3.870
 qs_ks_build_kohn_sham_matrix        32  7.9    0.004    0.004    3.867    3.870
 qs_ks_update_qs_env                 32  6.0    0.000    0.000    3.670    3.673
 pw_transfer                        474 10.4    0.022    0.024    2.840    3.010
 fft_wrap_pw1pw2                    410 11.4    0.003    0.004    2.799    2.971
 qs_vxc_create                       32  8.9    0.000    0.000    2.916    2.923
 fft_wrap_pw1pw2_200                263 12.7    0.169    0.186    2.668    2.836
 fft3d_ps                           410 13.4    1.281    1.416    2.273    2.454
 xc_rho_set_and_dset_create          32 10.9    0.015    0.016    1.927    2.167
 xc_vxc_pw_create                    17  9.8    0.032    0.037    1.899    1.906
 qs_rho_update_rho                   32  6.0    0.000    0.000    1.522    1.524
 calculate_rho_elec                  32  7.0    0.018    0.020    1.522    1.523
 density_rs2pw                       32  8.0    0.001    0.002    1.273    1.321
 xc_functional_eval                  32 11.9    0.000    0.000    0.844    1.080
 pbe_lda_eval                        32 12.9    0.844    1.080    0.844    1.080
 xc_exc_calc                         15 10.0    0.007    0.008    1.016    1.018
 mp_alltoall_z22v                   410 15.4    0.785    0.923    0.785    0.923
 rs_pw_transfer                     198  9.9    0.002    0.002    0.847    0.883
 sum_up_and_integrate                17  8.8    0.003    0.004    0.630    0.630
 integrate_v_rspace                  17  9.8    0.000    0.000    0.626    0.627
 yz_to_x                            197 13.7    0.062    0.072    0.473    0.619
 x_to_yz                            213 15.1    0.138    0.159    0.512    0.554
 qs_scf_new_mos                      31  6.0    0.000    0.000    0.527    0.529
 qs_scf_loop_do_ot                   31  7.0    0.000    0.000    0.527    0.529
 ot_scf_mini                         31  8.0    0.000    0.000    0.499    0.500
 potential_pw2rs                     17 10.8    0.001    0.001    0.483    0.484
 dbcsr_multiply_generic             483 10.9    0.013    0.014    0.438    0.442
 rs_pw_transfer_RS2PW_200            33  9.9    0.183    0.196    0.401    0.433
 grid_collocate_task_list            32  8.0    0.198    0.373    0.198    0.373
 mp_sum_d                           975  7.3    0.190    0.329    0.190    0.329
 mp_waitany                        1530 11.9    0.249    0.290    0.249    0.290
 ot_mini                             31  9.0    0.000    0.000    0.227    0.228
 mp_waitall_1                     30633 14.7    0.183    0.212    0.183    0.212
 qs_ot_get_p                         32  8.9    0.000    0.000    0.191    0.199
 qs_ks_update_qs_env_forces           1  3.0    0.000    0.000    0.199    0.199
 qs_ot_get_derivative                16 10.0    0.000    0.000    0.192    0.193
 rs_pw_transfer_PW2RS_200            18 12.6    0.108    0.115    0.185    0.193
 pw_scatter_p                       213 14.1    0.183    0.189    0.183    0.189
 init_scf_loop                        1  5.0    0.000    0.000    0.182    0.188
 pw_gather_p                        197 12.7    0.162    0.172    0.162    0.172
 multiply_cannon                    483 11.9    0.025    0.027    0.161    0.170
 make_m2s                           966 11.9    0.010    0.012    0.162    0.169
 mp_alltoall_d11v                   524 12.9    0.128    0.149    0.128    0.149
 grid_integrate_task_list            17 10.8    0.033    0.139    0.033    0.139
 qs_ot_get_derivative_diag           15 11.0    0.000    0.000    0.139    0.139
 qs_ot_p2m_diag                      31 10.0    0.001    0.001    0.135    0.137
 rs_gather_matrices                  17 10.8    0.000    0.000    0.109    0.129
 rs_pw_transfer_RS2PW_70             32 10.0    0.038    0.039    0.120    0.128
 -------------------------------------------------------------------------------

 The number of warnings for this run is : 2
 
 -------------------------------------------------------------------------------
  **** **** ******  **  PROGRAM ENDED AT                 2021-10-27 13:57:22.142
 ***** ** ***  *** **   PROGRAM RAN ON                                    node10
 **    ****   ******    PROGRAM RAN BY                                   lujunbo
 ***** **    ** ** **   PROGRAM PROCESS ID                                272774
  **** **  *******  **  PROGRAM STOPPED IN /home/lujunbo/WORK/deepmd/c2h6/mtd/tr
                                           ain_4_sys/cp2k_md/sys_4/data/task_162
                                           7
