 DBCSR| CPU Multiplication driver                                           XSMM
 DBCSR| Multrec recursion limit                                              512
 DBCSR| Multiplication stack size                                           1000
 DBCSR| Maximum elements for images                                    UNLIMITED
 DBCSR| Multiplicative factor virtual images                                   1
 DBCSR| Use multiplication densification                                       T
 DBCSR| Multiplication size stacks                                             3
 DBCSR| Use memory pool for CPU allocation                                     F
 DBCSR| Number of 3D layers                                               SINGLE
 DBCSR| Use MPI memory allocation                                              F
 DBCSR| Use RMA algorithm                                                      F
 DBCSR| Use Communication thread                                               T
 DBCSR| Communication thread load                                             87
 DBCSR| MPI: My node id                                                        0
 DBCSR| MPI: Number of nodes                                                  24
 DBCSR| OMP: Current number of threads                                         1
 DBCSR| OMP: Max number of threads                                             1
 DBCSR| Split modifier for TAS multiplication algorithm                  1.0E+00


  **** **** ******  **  PROGRAM STARTED AT               2021-10-27 13:02:22.512
 ***** ** ***  *** **   PROGRAM STARTED ON                                node10
 **    ****   ******    PROGRAM STARTED BY                               lujunbo
 ***** **    ** ** **   PROGRAM PROCESS ID                                237740
  **** **  *******  **  PROGRAM STARTED IN /home/lujunbo/WORK/deepmd/c2h6/mtd/tr
                                           ain_4_sys/cp2k_md/sys_4/data/task_117
                                           4

 CP2K| version string:                                          CP2K version 8.2
 CP2K| source code revision number:                                  git:310b7ab
 CP2K| cp2kflags: omp libint fftw3 libxc elpa parallel mpi3 scalapack xsmm plume
 CP2K|            d2 spglib mkl libvori libbqb
 CP2K| is freely available from                            https://www.cp2k.org/
 CP2K| Program compiled at                          Tue Jun  1 15:18:23 CST 2021
 CP2K| Program compiled on                                                   mgr
 CP2K| Program compiled for                                                local
 CP2K| Data directory path                       /home/lujunbo/bin/cp2k-8.2/data
 CP2K| Input file name                                                 input.inp

 GLOBAL| Force Environment number                                              1
 GLOBAL| Basis set file name            /home/lujunbo/bin/cp2k-8.2/data/BASIS_MO
 GLOBAL| Potential file name            /home/lujunbo/bin/cp2k-8.2/data/POTENTIA
 GLOBAL| MM Potential file name                                     MM_POTENTIAL
 GLOBAL| Coordinate file name                                      __STD_INPUT__
 GLOBAL| Method name                                                        CP2K
 GLOBAL| Project name                                                       cp2k
 GLOBAL| Run type                                                   ENERGY_FORCE
 GLOBAL| FFT library                                                       FFTW3
 GLOBAL| Diagonalization library                                            ELPA
 GLOBAL| Minimum number of eigenvectors for ELPA usage                        16
 GLOBAL| Orthonormality check for eigenvectors                          DISABLED
 GLOBAL| Matrix multiplication library                                    SCALAP
 GLOBAL| All-to-all communication in single precision                          F
 GLOBAL| FFTs using library dependent lengths                                  F
 GLOBAL| Grid backend                                                       AUTO
 GLOBAL| Global print level                                                  LOW
 GLOBAL| MPI I/O enabled                                                       T
 GLOBAL| Total number of message passing processes                            24
 GLOBAL| Number of threads for this process                                    1
 GLOBAL| This output is from process                                           0
 GLOBAL| CPU model name             Intel(R) Xeon(R) Platinum 9242 CPU @ 2.30GHz
 GLOBAL| CPUID                                                              1003

 MEMORY| system memory details [Kb]
 MEMORY|                        rank 0           min           max       average
 MEMORY| MemTotal            394609400     394609400     394609400     394609400
 MEMORY| MemFree             295887912     295887912     295887912     295887912
 MEMORY| Buffers                178232        178232        178232        178232
 MEMORY| Cached               62494920      62494920      62494920      62494920
 MEMORY| Slab                  1280644       1280644       1280644       1280644
 MEMORY| SReclaimable           586560        586560        586560        586560
 MEMORY| MemLikelyFree       359147624     359147624     359147624     359147624


 GENERATE|  Preliminary Number of Bonds generated:                             0
 GENERATE|  Achieved consistency in connectivity generation.

 *******************************************************************************
 *******************************************************************************
 **                                                                           **
 **     #####                         ##              ##                      **
 **    ##   ##            ##          ##              ##                      **
 **   ##     ##                       ##            ######                    **
 **   ##     ##  ##   ##  ##   #####  ##  ##   ####   ##    #####    #####    **
 **   ##     ##  ##   ##  ##  ##      ## ##   ##      ##   ##   ##  ##   ##   **
 **   ##  ## ##  ##   ##  ##  ##      ####     ###    ##   ######   ######    **
 **    ##  ###   ##   ##  ##  ##      ## ##      ##   ##   ##       ##        **
 **     #######   #####   ##   #####  ##  ##  ####    ##    #####   ##        **
 **           ##                                                    ##        **
 **                                                                           **
 **                                                ... make the atoms dance   **
 **                                                                           **
 **            Copyright (C) by CP2K developers group (2000-2021)             **
 **                      J. Chem. Phys. 152, 194103 (2020)                    **
 **                                                                           **
 *******************************************************************************


 TOTAL NUMBERS AND MAXIMUM NUMBERS

  Total number of            - Atomic kinds:                                   2
                             - Atoms:                                          8
                             - Shell sets:                                     8
                             - Shells:                                        28
                             - Primitive Cartesian functions:                 40
                             - Cartesian basis functions:                     58
                             - Spherical basis functions:                     56

  Maximum angular momentum of- Orbital basis functions:                        2
                             - Local part of the GTH pseudopotential:          2
                             - Non-local part of the GTH pseudopotential:      0


 SCF PARAMETERS         Density guess:                                   RESTART
                        --------------------------------------------------------
                        max_scf:                                             100
                        max_scf_history:                                       0
                        max_diis:                                              4
                        --------------------------------------------------------
                        eps_scf:                                        1.00E-06
                        eps_scf_history:                                0.00E+00
                        eps_diis:                                       1.00E-01
                        eps_eigval:                                     1.00E-05
                        --------------------------------------------------------
                        level_shift [a.u.]:                                 0.00
                        --------------------------------------------------------
                        Outer loop SCF in use 
                        No variables optimised in outer loop
                        eps_scf                                         1.00E-06
                        max_scf                                                6
                        No outer loop optimization
                        step_size                                       5.00E-01

 Number of electrons:                                                         14
 Number of occupied orbitals:                                                  7
 Number of molecular orbitals:                                                 7

 Number of orbital functions:                                                 56
 Number of independent orbital functions:                                     56

 Extrapolation method: initial_guess

 *** WARNING in qs_initial_guess.F:309 :: User requested to restart the    ***
 *** wavefunction from the file named: cp2k-RESTART.wfn. This file does    ***
 *** not exist. Please check the existence of the file or change properly  ***
 *** the value of the keyword WFN_RESTART_FILE_NAME. Calculation continues ***
 *** using ATOMIC GUESS.                                                   ***



 SCF WAVEFUNCTION OPTIMIZATION

  ----------------------------------- OT ---------------------------------------
  Minimizer      : CG                  : conjugate gradient
  Preconditioner : FULL_ALL            : diagonalization, state selective
  Precond_solver : DEFAULT
  Line search    : 2PNT                : 2 energies, one gradient
  stepsize       :    0.15000000                  energy_gap     :    0.08000000
  eps_taylor     :   0.10000E-15                  max_taylor     :             4
  ----------------------------------- OT ---------------------------------------

  Step     Update method      Time    Convergence         Total energy    Change
  ------------------------------------------------------------------------------
     1 OT CG       0.15E+00    0.2     0.17547514       -14.1769448433 -1.42E+01
     2 OT LS       0.10E+00    0.1                      -14.6397202469
     3 OT CG       0.10E+00    0.2     0.06964798       -14.8031637722 -6.26E-01
     4 OT LS       0.15E+00    0.1                      -14.9271439052
     5 OT CG       0.15E+00    0.2     0.01811003       -14.9413507894 -1.38E-01
     6 OT LS       0.14E+00    0.1                      -14.9499040377
     7 OT CG       0.14E+00    0.2     0.00648315       -14.9499957568 -8.64E-03
     8 OT LS       0.11E+00    0.1                      -14.9508242327
     9 OT CG       0.11E+00    0.3     0.00243121       -14.9508840830 -8.88E-04
    10 OT LS       0.14E+00    0.1                      -14.9510370573
    11 OT CG       0.14E+00    0.2     0.00071592       -14.9510454694 -1.61E-04
    12 OT LS       0.13E+00    0.1                      -14.9510586983
    13 OT CG       0.13E+00    0.2     0.00030721       -14.9510587388 -1.33E-05
    14 OT LS       0.11E+00    0.1                      -14.9510607065
    15 OT CG       0.11E+00    0.2     0.00011257       -14.9510607842 -2.05E-06
    16 OT LS       0.15E+00    0.1                      -14.9510611279
    17 OT CG       0.15E+00    0.2     0.00003365       -14.9510611511 -3.67E-07
    18 OT LS       0.15E+00    0.1                      -14.9510611839
    19 OT CG       0.15E+00    0.2     0.00001190       -14.9510611839 -3.28E-08
    20 OT LS       0.15E+00    0.1                      -14.9510611879
    21 OT CG       0.15E+00    0.2     0.00000503       -14.9510611879 -4.03E-09
    22 OT LS       0.11E+00    0.1                      -14.9510611884
    23 OT CG       0.11E+00    0.2     0.00000172       -14.9510611885 -5.39E-10
    24 OT LS       0.13E+00    0.1                      -14.9510611886
    25 OT CG       0.13E+00    0.2     0.00000071       -14.9510611886 -7.70E-11

  *** SCF run converged in    25 steps ***


  Electronic density on regular grids:        -14.0000000000        0.0000000000
  Core density on regular grids:               13.9999999989       -0.0000000011
  Total charge density on r-space grids:       -0.0000000010
  Total charge density g-space grids:          -0.0000000010

  Overlap energy of the core charge distribution:               0.00000136170523
  Self energy of the core charge distribution:                -35.13285960674677
  Core Hamiltonian energy:                                     11.35538624586289
  Hartree energy:                                              14.46886645091790
  Exchange-correlation energy:                                 -5.64245564029333

  Total energy:                                               -14.95106118855409

  outer SCF iter =    1 RMS gradient =   0.71E-06 energy =        -14.9510611886
  outer SCF loop converged in   1 iterations or   25 steps


 ENERGY| Total FORCE_EVAL ( QS ) energy [a.u.]:              -14.951061188566467

 -------------------------------------------------------------------------------
 -                                                                             -
 -                                DBCSR STATISTICS                             -
 -                                                                             -
 -------------------------------------------------------------------------------
 COUNTER                                    TOTAL       BLAS       SMM       ACC
 flops     7 x     7 x     7                92610       0.0%    100.0%      0.0%
 flops     5 x    13 x     7               147420       0.0%    100.0%      0.0%
 flops    13 x     5 x     7               147420       0.0%    100.0%      0.0%
 flops     7 x     7 x    13               165620       0.0%    100.0%      0.0%
 flops     7 x     7 x     5               191100       0.0%    100.0%      0.0%
 flops    13 x    13 x     7               191646       0.0%    100.0%      0.0%
 flops     5 x     5 x     7               198450       0.0%    100.0%      0.0%
 flops    26 x     7 x     7               229320       0.0%    100.0%      0.0%
 flops    10 x     7 x     7               264600       0.0%    100.0%      0.0%
 flops    26 x     7 x    13               264992       0.0%    100.0%      0.0%
 flops    26 x     7 x     5               305760       0.0%    100.0%      0.0%
 flops    10 x     7 x    13               305760       0.0%    100.0%      0.0%
 flops    10 x     7 x     5               352800       0.0%    100.0%      0.0%
 flops    13 x     7 x    13               444808       0.0%    100.0%      0.0%
 flops    13 x     7 x     5               513240       0.0%    100.0%      0.0%
 flops     5 x     7 x    13               513240       0.0%    100.0%      0.0%
 flops     5 x     7 x     5               592200       0.0%    100.0%      0.0%
 flops inhomo. stacks                           0       0.0%      0.0%      0.0%
 flops total                         4.920986E+06       0.0%    100.0%      0.0%
 flops max/rank                      2.399096E+06       0.0%    100.0%      0.0%
 matmuls inhomo. stacks                         0       0.0%      0.0%      0.0%
 matmuls total                               5891       0.0%    100.0%      0.0%
 number of processed stacks                  4063       0.0%    100.0%      0.0%
 average stack size                                     0.0       1.4       0.0
 marketing flops                     5.426942E+06
 -------------------------------------------------------------------------------
 # multiplications                            393
 max memory usage/rank             178.593792E+06
 # max total images/rank                        3
 # max 3D layers                                1
 # MPI messages exchanged                  179208
 MPI messages size (bytes):
  total size                        14.362096E+06
  min size                           0.000000E+00
  max size                           2.704000E+03
  average size                      80.142044E+00
 MPI breakdown and total messages size (bytes):
             size <=      128              157072                        0
       128 < size <=     8192               22136                 14362096
      8192 < size <=    32768                   0                        0
     32768 < size <=   131072                   0                        0
    131072 < size <=  4194304                   0                        0
   4194304 < size <= 16777216                   0                        0
  16777216 < size                               0                        0
 -------------------------------------------------------------------------------

 *** WARNING in dbcsr_mm.F:294 :: Using a non-square number of MPI ranks ***
 *** might lead to poor performance. Used ranks: 24 Suggested: 25 49     ***

 -------------------------------------------------------------------------------
 -                                                                             -
 -                      DBCSR MESSAGE PASSING PERFORMANCE                      -
 -                                                                             -
 -------------------------------------------------------------------------------
 ROUTINE             CALLS      AVE VOLUME [Bytes]
 MP_Bcast               18                     12.
 MP_Allreduce         2028                      8.
 MP_Alltoall          1661                   1407.
 MP_ISend            16502                    164.
 MP_IRecv            16502                    110.
 -------------------------------------------------------------------------------

 -------------------------------------------------------------------------------
 -                                                                             -
 -                                GRID STATISTICS                              -
 -                                                                             -
 -------------------------------------------------------------------------------
 LP    KERNEL             BACKEND                              COUNT     PERCENT
 2     collocate ortho    REF                                  17732      38.06%
 3     collocate ortho    REF                                   9854      21.15%
 2     integrate ortho    REF                                   8866      19.03%
 3     integrate ortho    REF                                   4927      10.58%
 4     collocate ortho    REF                                   2444       5.25%
 4     integrate ortho    REF                                   1222       2.62%
 5     integrate ortho    REF                                    682       1.46%
 6     integrate ortho    REF                                    379       0.81%
 0     collocate general  REF                                    192       0.41%
 3     integrate general  REF                                    192       0.41%
 7     integrate ortho    REF                                     94       0.20%
 -------------------------------------------------------------------------------

 MEMORY| Estimated peak process memory [MiB]                                 171

 -------------------------------------------------------------------------------
 -                                                                             -
 -                         MESSAGE PASSING PERFORMANCE                         -
 -                                                                             -
 -------------------------------------------------------------------------------

 ROUTINE             CALLS      AVE VOLUME [Bytes]
 MP_Group                4
 MP_Bcast              487                 754964.
 MP_Allreduce         1520                    215.
 MP_Sync                60
 MP_Alltoall           388                2964095.
 MP_ISendRecv         2760                  53808.
 MP_Wait              4188
 MP_comm_split          28
 MP_ISend             1260                 171657.
 MP_IRecv             1260                 171410.
 MP_Recv                 6                    896.
 -------------------------------------------------------------------------------


 -------------------------------------------------------------------------------
 -                                                                             -
 -                           R E F E R E N C E S                               -
 -                                                                             -
 -------------------------------------------------------------------------------
 
 CP2K version 8.2, the CP2K developers group (2021).
 CP2K is freely available from https://www.cp2k.org/ .

 Kuehne,Thomas D.; Iannuzzi,Marcella; Del Ben,Mauro;
 Rybkin,Vladimir V.; Seewald,Patrick; Stein,Frederick; Laino,Teodoro;
 Khaliullin,Rustam Z.; Schuett,Ole; Schiffmann,Florian; Golze,Dorothea;
 Wilhelm,Jan; Chulkov,Sergey; Bani-Hashemian,Mohammad Hossein;
 Weber,Valery; Borstnik,Urban; Taillefumier,Mathieu;
 Jakobovits,Alice Shoshana; Lazzaro,Alfio; Pabst,Hans; Mueller,Tiziano;
 Schade,Robert; Guidon,Manuel; Andermatt,Samuel; Holmberg,Nico;
 Schenter,Gregory K.; Hehn,Anna; Bussy,Augustin; Belleflamme,Fabian;
 Tabacchi,Gloria; Gloess,Andreas; Lass,Michael; Bethune,Iain;
 Mundy,Christopher J.; Plessl,Christian; Watkins,Matt;
 VandeVondele,Joost; Krack,Matthias; Hutter,Juerg. 
 The Journal of Chemical Physics, 152 (19), (2020). 
 CP2K: An electronic structure and molecular dynamics software package -
 Quickstep: Efficient and accurate electronic structure calculations.
 https://doi.org/10.1063/5.0007045

 Schuett, Ole; Messmer, Peter; Hutter, Juerg; VandeVondele, Joost. 
 Electronic Structure Calculations on Graphics Processing Units, John
 Wiley & Sons, Ltd, 173-190 (2016). 
 GPU-Accelerated Sparse Matrix-Matrix Multiplication for
 Linear Scaling Density Functional Theory.
 https://doi.org/10.1002/9781118670712.ch8

 Heinecke, A; Henry, G; Hutchinson, M; Pabst, H. 
 Proceedings of Intl. Supercomputing Conference, 981-991 (2016). 
 LIBXSMM: Accelerating Small Matrix Multiplications
 by Runtime Code Generation.
 https://doi.org/10.1109/SC.2016.83

 Borstnik, U; VandeVondele, J; Weber, V; Hutter, J. 
 PARALLEL COMPUTING, 40 (5-6), 47-58 (2014). 
 Sparse matrix multiplication: The distributed block-compressed sparse
 row library.
 https://doi.org/10.1016/j.parco.2014.03.012

 Hutter, J; Iannuzzi, M; Schiffmann, F; VandeVondele, J. 
 WIREs Comput Mol Sci., 4 (1), 15-25 (2014). 
 CP2K: atomistic simulations of condensed matter systems.
 https://doi.org/10.1002/wcms.1159

 Marek, A; Blum, V; Johanni, R; Havu, V; Lang, B; Auckenthaler, T;
 Heinecke, A; Bungartz, H; Lederer, H. 
 Journal of Physics: Condensed Matter, 26 (21), (2014). 
 The ELPA library: scalable parallel eigenvalue solutions for
 electronic structure
 theory and computational science.
 https://doi.org/10.1088/0953-8984/26/21/213201

 VandeVondele, J; Hutter, J. 
 JOURNAL OF CHEMICAL PHYSICS, 127 (11), 114105 (2007). 
 Gaussian basis sets for accurate calculations on molecular systems in
 gas and condensed phases.
 https://doi.org/10.1063/1.2770708

 Krack, M. 
 THEORETICAL CHEMISTRY ACCOUNTS, 114 (1-3), 145-152 (2005). 
 Pseudopotentials for H to Kr optimized for gradient-corrected
 exchange-correlation functionals.
 https://doi.org/10.1007/s00214-005-0655-y

 VandeVondele, J; Krack, M; Mohamed, F; Parrinello, M; Chassaing, T;
 Hutter, J. COMPUTER PHYSICS COMMUNICATIONS, 167 (2), 103-128 (2005). 
 QUICKSTEP: Fast and accurate density functional calculations using a
 mixed Gaussian and plane waves approach.
 https://doi.org/10.1016/j.cpc.2004.12.014

 Frigo, M; Johnson, SG. 
 PROCEEDINGS OF THE IEEE, 93 (2), 216-231 (2005). 
 The design and implementation of FFTW3.
 https://doi.org/10.1109/JPROC.2004.840301

 VandeVondele, J; Hutter, J. 
 JOURNAL OF CHEMICAL PHYSICS, 118 (10), 4365-4369 (2003). 
 An efficient orbital transformation method for electronic structure
 calculations.
 https://doi.org/10.1063/1.1543154

 Hartwigsen, C; Goedecker, S; Hutter, J. 
 PHYSICAL REVIEW B, 58 (7), 3641-3662 (1998). 
 Relativistic separable dual-space Gaussian pseudopotentials from H to Rn.
 https://doi.org/10.1103/PhysRevB.58.3641

 Lippert, G; Hutter, J; Parrinello, M. 
 MOLECULAR PHYSICS, 92 (3), 477-487 (1997). 
 A hybrid Gaussian and plane wave density functional scheme.
 https://doi.org/10.1080/002689797170220

 Perdew, JP; Burke, K; Ernzerhof, M. 
 PHYSICAL REVIEW LETTERS, 77 (18), 3865-3868 (1996). 
 Generalized gradient approximation made simple.
 https://doi.org/10.1103/PhysRevLett.77.3865

 Goedecker, S; Teter, M; Hutter, J. 
 PHYSICAL REVIEW B, 54 (3), 1703-1710 (1996). 
 Separable dual-space Gaussian pseudopotentials.
 https://doi.org/10.1103/PhysRevB.54.1703


 -------------------------------------------------------------------------------
 -                                                                             -
 -                                T I M I N G                                  -
 -                                                                             -
 -------------------------------------------------------------------------------
 SUBROUTINE                       CALLS  ASD         SELF TIME        TOTAL TIME
                                MAXIMUM       AVERAGE  MAXIMUM  AVERAGE  MAXIMUM
 CP2K                                 1  1.0    0.006    0.014    4.769    4.771
 qs_forces                            1  2.0    0.000    0.000    4.655    4.655
 qs_energies                          1  3.0    0.000    0.000    4.433    4.433
 scf_env_do_scf                       1  4.0    0.000    0.000    4.334    4.334
 scf_env_do_scf_inner_loop           25  5.0    0.001    0.002    4.167    4.167
 rebuild_ks_matrix                   26  6.9    0.000    0.000    3.042    3.043
 qs_ks_build_kohn_sham_matrix        26  7.9    0.003    0.003    3.042    3.043
 qs_ks_update_qs_env                 26  6.0    0.000    0.000    2.828    2.828
 qs_vxc_create                       26  8.9    0.000    0.000    2.273    2.277
 pw_transfer                        387 10.3    0.017    0.018    2.136    2.263
 fft_wrap_pw1pw2                    335 11.4    0.003    0.003    2.106    2.234
 fft_wrap_pw1pw2_200                215 12.7    0.121    0.129    1.996    2.123
 fft3d_ps                           335 13.4    0.958    1.089    1.715    1.843
 xc_rho_set_and_dset_create          26 10.9    0.010    0.011    1.469    1.688
 xc_vxc_pw_create                    14  9.8    0.027    0.031    1.493    1.497
 qs_rho_update_rho                   26  6.0    0.000    0.000    1.108    1.109
 calculate_rho_elec                  26  7.0    0.015    0.017    1.108    1.108
 density_rs2pw                       26  8.0    0.001    0.001    0.919    0.957
 xc_functional_eval                  26 11.9    0.000    0.000    0.682    0.893
 pbe_lda_eval                        26 12.9    0.681    0.893    0.681    0.893
 xc_exc_calc                         12 10.0    0.005    0.006    0.781    0.781
 mp_alltoall_z22v                   335 15.4    0.606    0.756    0.606    0.756
 rs_pw_transfer                     162  9.9    0.002    0.002    0.654    0.684
 yz_to_x                            161 13.7    0.046    0.053    0.377    0.520
 sum_up_and_integrate                14  8.8    0.003    0.003    0.518    0.519
 integrate_v_rspace                  14  9.8    0.000    0.000    0.516    0.516
 qs_scf_new_mos                      25  6.0    0.000    0.000    0.406    0.406
 qs_scf_loop_do_ot                   25  7.0    0.000    0.000    0.406    0.406
 potential_pw2rs                     14 10.8    0.001    0.001    0.399    0.399
 x_to_yz                            174 15.1    0.101    0.118    0.376    0.389
 ot_scf_mini                         25  8.0    0.000    0.000    0.383    0.383
 dbcsr_multiply_generic             393 10.8    0.010    0.012    0.339    0.343
 rs_pw_transfer_RS2PW_200            27  9.9    0.130    0.139    0.298    0.327
 mp_sum_d                           868  6.7    0.181    0.300    0.181    0.300
 grid_collocate_task_list            26  8.0    0.144    0.279    0.144    0.279
 mp_waitany                        1260 11.8    0.198    0.234    0.198    0.234
 qs_ks_update_qs_env_forces           1  3.0    0.000    0.000    0.216    0.216
 ot_mini                             25  9.0    0.000    0.000    0.176    0.176
 init_scf_loop                        1  5.0    0.000    0.000    0.166    0.166
 mp_waitall_1                     24936 14.7    0.141    0.160    0.141    0.160
 rs_pw_transfer_PW2RS_200            15 12.5    0.087    0.092    0.151    0.158
 qs_ot_get_p                         26  8.9    0.000    0.000    0.147    0.149
 qs_ot_get_derivative                13 10.0    0.000    0.000    0.148    0.148
 pw_scatter_p                       174 14.1    0.135    0.137    0.135    0.137
 multiply_cannon                    393 11.8    0.020    0.022    0.128    0.136
 make_m2s                           786 11.8    0.008    0.010    0.127    0.132
 pw_gather_p                        161 12.7    0.125    0.129    0.125    0.129
 mp_alltoall_d11v                   452 12.8    0.104    0.120    0.104    0.120
 grid_integrate_task_list            14 10.8    0.028    0.115    0.028    0.115
 qs_ot_get_derivative_diag           12 11.0    0.000    0.000    0.106    0.107
 rs_gather_matrices                  14 10.8    0.000    0.000    0.089    0.105
 qs_ot_p2m_diag                      25 10.0    0.001    0.001    0.103    0.104
 -------------------------------------------------------------------------------

 The number of warnings for this run is : 2
 
 -------------------------------------------------------------------------------
  **** **** ******  **  PROGRAM ENDED AT                 2021-10-27 13:02:27.749
 ***** ** ***  *** **   PROGRAM RAN ON                                    node10
 **    ****   ******    PROGRAM RAN BY                                   lujunbo
 ***** **    ** ** **   PROGRAM PROCESS ID                                237740
  **** **  *******  **  PROGRAM STOPPED IN /home/lujunbo/WORK/deepmd/c2h6/mtd/tr
                                           ain_4_sys/cp2k_md/sys_4/data/task_117
                                           4
