       3
 i =        0, time =        0.000, E =       -37.7638499609
  C         0.0000925464       -0.0000262923       -0.0000242631
  O        -0.0000001914        0.0000001013       -0.0333091711
  O        -0.0000002267        0.0000000672        0.0333122606
       3
 i =        1, time =        0.500, E =       -37.7639577815
  C         0.0000359217       -0.0001259016        0.0014206080
  O         0.0001041720        0.0000377151       -0.0322854051
  O        -0.0001499862        0.0001213472        0.0309334518
       3
 i =        2, time =        1.000, E =       -37.7640851206
  C         0.0000746108       -0.0002544531        0.0027340512
  O         0.0002158871        0.0000741351       -0.0307377976
  O        -0.0003121299        0.0002485828        0.0281300659
       3
 i =        3, time =        1.500, E =       -37.7642244380
  C         0.0001156993       -0.0003856007        0.0038685707
  O         0.0003382946        0.0001086840       -0.0286681608
  O        -0.0004894210        0.0003826436        0.0249687151
       3
 i =        4, time =        2.000, E =       -37.7643675475
  C         0.0001583259       -0.0005191377        0.0047633036
  O         0.0004769042        0.0001404958       -0.0260943070
  O        -0.0006861989        0.0005245097        0.0215258773
       3
 i =        5, time =        2.500, E =       -37.7645061009
  C         0.0002015927       -0.0006547441        0.0053778467
  O         0.0006370805        0.0001684904       -0.0230557472
  O        -0.0009055058        0.0006754047        0.0178795688
       3
 i =        6, time =        3.000, E =       -37.7646320818
  C         0.0002445159       -0.0007915511        0.0056869444
  O         0.0008218989        0.0001914463       -0.0195988763
  O        -0.0011484573        0.0008357755        0.0141005995
       3
 i =        7, time =        3.500, E =       -37.7647382273
  C         0.0002862234       -0.0009288609        0.0056919777
  O         0.0010350495        0.0002082018       -0.0157841417
  O        -0.0014177924        0.0010065072        0.0102472133
       3
 i =        8, time =        4.000, E =       -37.7648183722
  C         0.0003256748       -0.0010654744        0.0054043877
  O         0.0012816515        0.0002172035       -0.0116652857
  O        -0.0017162579        0.0011881819        0.0063641376
       3
 i =        9, time =        4.500, E =       -37.7648677687
  C         0.0003620089       -0.0011998627        0.0048568021
  O         0.0015655046        0.0002169623       -0.0073087823
  O        -0.0020438013        0.0013797300        0.0024914230
       3
 i =       10, time =        5.000, E =       -37.7648833988
  C         0.0003948921       -0.0013313943        0.0040896074
  O         0.0018864641        0.0002070111       -0.0027851357
  O        -0.0023965398        0.0015792522       -0.0013322688
       3
 i =       11, time =        5.500, E =       -37.7648642357
  C         0.0004239374       -0.0014582294        0.0031534352
  O         0.0022383304        0.0001874611        0.0018212375
  O        -0.0027664430        0.0017828437       -0.0050653557
       3
 i =       12, time =        6.000, E =       -37.7648113840
  C         0.0004490525       -0.0015790622        0.0021024400
  O         0.0026117058        0.0001590858        0.0064231167
  O        -0.0031440912        0.0019862901       -0.0086686156
       3
 i =       13, time =        6.500, E =       -37.7647280683
  C         0.0004703424       -0.0016925084        0.0009924220
  O         0.0029948480        0.0001231580        0.0109278659
  O        -0.0035179548        0.0021843615       -0.0121005891
       3
 i =       14, time =        7.000, E =       -37.7646194588
  C         0.0004881602       -0.0017975806       -0.0001250904
  O         0.0033742089        0.0000818211        0.0152449311
  O        -0.0038760954        0.0023714842       -0.0153201754
       3
 i =       15, time =        7.500, E =       -37.7644923362
  C         0.0005029296       -0.0018932065       -0.0011991277
  O         0.0037355648        0.0000374907        0.0192875518
  O        -0.0042079239        0.0025427394       -0.0182928454
       3
 i =       16, time =        8.000, E =       -37.7643546240
  C         0.0005151527       -0.0019783878       -0.0021839726
  O         0.0040665532       -0.0000079055        0.0229717745
  O        -0.0045051754        0.0026945436       -0.0209834316
       3
 i =       17, time =        8.500, E =       -37.7642148321
  C         0.0005253378       -0.0020524472       -0.0030433917
  O         0.0043581323       -0.0000527457        0.0262280755
  O        -0.0047625552        0.0028243894       -0.0233627313
       3
 i =       18, time =        9.000, E =       -37.7640814658
  C         0.0005339329       -0.0021147437       -0.0037500185
  O         0.0046049985       -0.0000957430        0.0290011973
  O        -0.0049777902        0.0029309820       -0.0254076786
       3
 i =       19, time =        9.500, E =       -37.7639624592
  C         0.0005413880       -0.0021648622       -0.0042818250
  O         0.0048054046       -0.0001362418        0.0312450322
  O        -0.0051511734        0.0030142288       -0.0270987811
       3
 i =       20, time =       10.000, E =       -37.7638646757
  C         0.0005481106       -0.0022024695       -0.0046229252
  O         0.0049599832       -0.0001740465        0.0329271586
  O        -0.0052842791        0.0030746061       -0.0284230629
       3
 i =       21, time =       10.500, E =       -37.7637935091
  C         0.0005543914       -0.0022273863       -0.0047665983
  O         0.0050708301       -0.0002091924        0.0340286780
  O        -0.0053794729        0.0031129642       -0.0293705841
       3
 i =       22, time =       11.000, E =       -37.7637526026
  C         0.0005604335       -0.0022395140       -0.0047115585
  O         0.0051401426       -0.0002417248        0.0345415498
  O        -0.0054391622        0.0031301646       -0.0299358300
       3
 i =       23, time =       11.500, E =       -37.7637436913
  C         0.0005663222       -0.0022389239       -0.0044637039
  O         0.0051702849       -0.0002716223        0.0344685694
  O        -0.0054658392        0.0031270971       -0.0301157395
       3
 i =       24, time =       12.000, E =       -37.7637665662
  C         0.0005720656       -0.0022258207       -0.0040342149
  O         0.0051627302       -0.0002985069        0.0338218283
  O        -0.0054611710        0.0031043453       -0.0299104081
       3
 i =       25, time =       12.500, E =       -37.7638191521
  C         0.0005775441       -0.0022004434       -0.0034404404
  O         0.0051182367       -0.0003217439        0.0326223005
  O        -0.0054260443        0.0030621927       -0.0293218257
       3
 i =       26, time =       13.000, E =       -37.7638976854
  C         0.0005825268       -0.0021630993       -0.0027049099
  O         0.0050369837       -0.0003404620        0.0308992104
  O        -0.0053606039        0.0030006985       -0.0283543998
       3
 i =       27, time =       13.500, E =       -37.7639969814
  C         0.0005867370       -0.0021144030       -0.0018552388
  O         0.0049191260       -0.0003535667        0.0286904638
  O        -0.0052647366        0.0029199486       -0.0270156941
       3
 i =       28, time =       14.000, E =       -37.7641107734
  C         0.0005897433       -0.0020549425       -0.0009255739
  O         0.0047652888       -0.0003600882        0.0260430432
  O        -0.0051382055        0.0028200894       -0.0253156580
       3
 i =       29, time =       14.500, E =       -37.7642321061
  C         0.0005910889       -0.0019852336        0.0000533742
  O         0.0045768215       -0.0003593292        0.0230056161
  O        -0.0049807500        0.0027014208       -0.0232693795
       3
 i =       30, time =       15.000, E =       -37.7643537584
  C         0.0005902242       -0.0019062450        0.0010385973
  O         0.0043566643       -0.0003510681        0.0196410788
  O        -0.0047929830        0.0025651667       -0.0208943563
       3
 i =       31, time =       15.500, E =       -37.7644686768
  C         0.0005864664       -0.0018187153        0.0019846930
  O         0.0041093302       -0.0003355400        0.0160156217
  O        -0.0045766085        0.0024128816       -0.0182096195
       3
 i =       32, time =       16.000, E =       -37.7645703870
  C         0.0005792989       -0.0017237852        0.0028511892
  O         0.0038410534       -0.0003135105        0.0121999779
  O        -0.0043353539        0.0022472223       -0.0152448817
       3
 i =       33, time =       16.500, E =       -37.7646533592
  C         0.0005679943       -0.0016220337        0.0035951555
  O         0.0035589762       -0.0002863896        0.0082656036
  O        -0.0040739849        0.0020710564       -0.0120296624
       3
 i =       34, time =       17.000, E =       -37.7647133024
  C         0.0005519701       -0.0015143145        0.0041770449
  O         0.0032712306       -0.0002562797        0.0042865480
  O        -0.0037984224        0.0018880038       -0.0086005632
       3
 i =       35, time =       17.500, E =       -37.7647473757
  C         0.0005311612       -0.0014025592        0.0045651699
  O         0.0029870601       -0.0002253338        0.0003313607
  O        -0.0035159648        0.0017027659       -0.0049976479
       3
 i =       36, time =       18.000, E =       -37.7647543073
  C         0.0005051075       -0.0012871332        0.0047313587
  O         0.0027145603       -0.0001963047       -0.0035283171
  O        -0.0032332949        0.0015188117       -0.0012679953
       3
 i =       37, time =       18.500, E =       -37.7647344249
  C         0.0004740520       -0.0011697084        0.0046623911
  O         0.0024612525       -0.0001714415       -0.0072352500
  O        -0.0029585900        0.0013405120        0.0025401928
       3
 i =       38, time =       19.000, E =       -37.7646895994
  C         0.0004377685       -0.0010501476        0.0043478885
  O         0.0022319559       -0.0001529821       -0.0107270030
  O        -0.0026975280        0.0011705699        0.0063710665
       3
 i =       39, time =       19.500, E =       -37.7646231106
  C         0.0003971165       -0.0009301970        0.0038023996
  O         0.0020306421       -0.0001421853       -0.0139612665
  O        -0.0024565542        0.0010122927        0.0101649827
       3
 i =       40, time =       20.000, E =       -37.7645394488
  C         0.0003527355       -0.0008105497        0.0030463187
  O         0.0018587347       -0.0001404409       -0.0168943648
  O        -0.0022393832        0.0008673212        0.0138568666
       3
 i =       41, time =       20.500, E =       -37.7644440592
  C         0.0003054980       -0.0006918708        0.0021170817
  O         0.0017160247       -0.0001485615       -0.0194970654
  O        -0.0020482236        0.0007366172        0.0173801009
       3
 i =       42, time =       21.000, E =       -37.7643430489
  C         0.0002565096       -0.0005748194        0.0010626162
  O         0.0016009430       -0.0001666074       -0.0217441096
  O        -0.0018838431        0.0006206240        0.0206628007
       3
 i =       43, time =       21.500, E =       -37.7642428555
  C         0.0002068641       -0.0004598964       -0.0000623576
  O         0.0015113372       -0.0001936025       -0.0236162049
  O        -0.0017456909        0.0005182661        0.0236324830
       3
 i =       44, time =       22.000, E =       -37.7641498755
  C         0.0001578640       -0.0003475456       -0.0011921363
  O         0.0014451656       -0.0002285660       -0.0251026493
  O        -0.0016336256        0.0004283507        0.0262180977
       3
 i =       45, time =       22.500, E =       -37.7640700616
  C         0.0001107285       -0.0002380015       -0.0022584257
  O         0.0013996828       -0.0002703727       -0.0262082668
  O        -0.0015461889        0.0003490080        0.0283573170
       3
 i =       46, time =       23.000, E =       -37.7640085393
  C         0.0000664940       -0.0001313304       -0.0032003856
  O         0.0013732012       -0.0003188336       -0.0269405116
  O        -0.0014823334        0.0002792362        0.0300012243
       3
 i =       47, time =       23.500, E =       -37.7639692841
  C         0.0000259998       -0.0000275085       -0.0039616304
  O         0.0013634569       -0.0003736527       -0.0273109044
  O        -0.0014400323        0.0002181663        0.0311077864
       3
 i =       48, time =       24.000, E =       -37.7639548626
  C        -0.0000101540        0.0000735941       -0.0044977088
  O         0.0013685733       -0.0004343825       -0.0273312528
  O        -0.0014175360        0.0001648130        0.0316470906
       3
 i =       49, time =       24.500, E =       -37.7639662519
  C        -0.0000416506        0.0001722180       -0.0047785191
  O         0.0013874158       -0.0005008157       -0.0270146062
  O        -0.0014137091        0.0001182973        0.0316045763
       3
 i =       50, time =       25.000, E =       -37.7640027696
  C        -0.0000684872        0.0002687070       -0.0047887434
  O         0.0014199301       -0.0005733623       -0.0263763096
  O        -0.0014284069        0.0000782308        0.0309816215
       3
 i =       51, time =       25.500, E =       -37.7640621290
  C        -0.0000910015        0.0003635250       -0.0045332621
  O         0.0014665823       -0.0006526232       -0.0254295564
  O        -0.0014619151        0.0000440546        0.0297968491
       3
 i =       52, time =       26.000, E =       -37.7641406123
  C        -0.0001097845        0.0004570990       -0.0040307022
  O         0.0015281411       -0.0007392138       -0.0241869356
  O        -0.0015146423        0.0000149919        0.0280803849
       3
 i =       53, time =       26.500, E =       -37.7642333384
  C        -0.0001256408        0.0005496866       -0.0033176193
  O         0.0016048042       -0.0008336011       -0.0226565858
  O        -0.0015863524       -0.0000094669        0.0258762301
       3
 i =       54, time =       27.000, E =       -37.7643346182
  C        -0.0001395160        0.0006415557       -0.0024385188
  O         0.0016975787       -0.0009366555       -0.0208517701
  O        -0.0016772071       -0.0000293392        0.0232404548
       3
 i =       55, time =       27.500, E =       -37.7644383751
  C        -0.0001524208        0.0007328488       -0.0014477870
  O         0.0018074579       -0.0010495119       -0.0187898214
  O        -0.0017871040       -0.0000444757        0.0202424717
       3
 i =       56, time =       28.000, E =       -37.7645385818
  C        -0.0001652693        0.0008235164       -0.0004041323
  O         0.0019350322       -0.0011730039       -0.0164913499
  O        -0.0019158096       -0.0000548874        0.0169582919
       3
 i =       57, time =       28.500, E =       -37.7646296550
  C        -0.0001789592        0.0009133780        0.0006347902
  O         0.0020803290       -0.0013073158       -0.0139787301
  O        -0.0020621385       -0.0000613753        0.0134636999
       3
 i =       58, time =       29.000, E =       -37.7647067756
  C        -0.0001942464        0.0010022205        0.0016126786
  O         0.0022424880       -0.0014518667       -0.0112728851
  O        -0.0022239783       -0.0000653948        0.0098327128
       3
 i =       59, time =       29.500, E =       -37.7647661370
  C        -0.0002116701        0.0010893609        0.0024774022
  O         0.0024197035       -0.0016053791       -0.0083974077
  O        -0.0023979878       -0.0000679111        0.0061385974
       3
 i =       60, time =       30.000, E =       -37.7648051097
  C        -0.0002315285        0.0011744222        0.0031952752
  O         0.0026088670       -0.0017663092       -0.0053825851
  O        -0.0025794906       -0.0000700886        0.0024439424
       3
 i =       61, time =       30.500, E =       -37.7648223287
  C        -0.0002539293        0.0012566850        0.0037366135
  O         0.0028051631       -0.0019322548       -0.0022602854
  O        -0.0027622035       -0.0000728367       -0.0011909027
       3
 i =       62, time =       31.000, E =       -37.7648177122
  C        -0.0002786945        0.0013348022        0.0040815068
  O         0.0030022436       -0.0020997793        0.0009314720
  O        -0.0029385471       -0.0000768601       -0.0047083085
       3
 i =       63, time =       31.500, E =       -37.7647924150
  C        -0.0003056750        0.0014086963        0.0042251991
  O         0.0031936161       -0.0022656117        0.0041498953
  O        -0.0031010908       -0.0000835245       -0.0080598496
       3
 i =       64, time =       32.000, E =       -37.7647487278
  C        -0.0003342382        0.0014765932        0.0041704547
  O         0.0033719299       -0.0024252965        0.0073497387
  O        -0.0032425914       -0.0000933106       -0.0112010224
       3
 i =       65, time =       32.500, E =       -37.7646899267
  C        -0.0003637559        0.0015373081        0.0039261600
  O         0.0035304284       -0.0025745526        0.0104825235
  O        -0.0033569754       -0.0001065435       -0.0140898834
       3
 i =       66, time =       33.000, E =       -37.7646200778
  C        -0.0003935787        0.0015904001        0.0035156529
  O         0.0036635932       -0.0027096211        0.0134957105
  O        -0.0034397572       -0.0001235455       -0.0166948248
       3
 i =       67, time =       33.500, E =       -37.7645438062
  C        -0.0004229158        0.0016346540        0.0029616798
  O         0.0037665059       -0.0028268271        0.0163390557
  O        -0.0034875800       -0.0001440470       -0.0189859265
       3
 i =       68, time =       34.000, E =       -37.7644660388
  C        -0.0004509839        0.0016691543        0.0022937131
  O         0.0038354638       -0.0029231576        0.0189609000
  O        -0.0034985186       -0.0001676124       -0.0209394810
       3
 i =       69, time =       34.500, E =       -37.7643917330
  C        -0.0004770787        0.0016934247        0.0015461824
  O         0.0038680488       -0.0029964296        0.0213125677
  O        -0.0034718032       -0.0001937750       -0.0225404596
       3
 i =       70, time =       35.000, E =       -37.7643256020
  C        -0.0005005267        0.0017068309        0.0007496786
  O         0.0038627851       -0.0030448926        0.0233501420
  O        -0.0034075679       -0.0002218184       -0.0237755124
       3
 i =       71, time =       35.500, E =       -37.7642718512
  C        -0.0005207507        0.0017089603       -0.0000642166
  O         0.0038190251       -0.0030673432        0.0250340297
  O        -0.0033065518       -0.0002510070       -0.0246374038
       3
 i =       72, time =       36.000, E =       -37.7642339407
  C        -0.0005371366        0.0016994284       -0.0008517124
  O         0.0037367221       -0.0030628112        0.0263232618
  O        -0.0031700953       -0.0002805999       -0.0251304895
       3
 i =       73, time =       36.500, E =       -37.7642143857
  C        -0.0005494079        0.0016783532       -0.0015882075
  O         0.0036165320       -0.0030307944        0.0271950795
  O        -0.0030000477       -0.0003099597       -0.0252587136
       3
 i =       74, time =       37.000, E =       -37.7642146100
  C        -0.0005573291        0.0016456902       -0.0022532169
  O         0.0034594292       -0.0029708882        0.0276291111
  O        -0.0027987444       -0.0003383083       -0.0250245390
       3
 i =       75, time =       37.500, E =       -37.7642348558
  C        -0.0005606932        0.0016018150       -0.0028066878
  O         0.0032668462       -0.0028830435        0.0276065826
  O        -0.0025693159       -0.0003649975       -0.0244516409
       3
 i =       76, time =       38.000, E =       -37.7642741656
  C        -0.0005595229        0.0015471043       -0.0032336966
  O         0.0030409675       -0.0027675924        0.0271263910
  O        -0.0023156560       -0.0003892519       -0.0235558442
       3
 i =       77, time =       38.500, E =       -37.7643304352
  C        -0.0005539614        0.0014822147       -0.0035199589
  O         0.0027850768       -0.0026255906        0.0261936584
  O        -0.0020426760       -0.0004103226       -0.0223577971
       3
 i =       78, time =       39.000, E =       -37.7644005392
  C        -0.0005441799        0.0014077658       -0.0036475248
  O         0.0025036132       -0.0024588627        0.0248198874
  O        -0.0017561156       -0.0004273733       -0.0208870205
       3
 i =       79, time =       39.500, E =       -37.7644805216
  C        -0.0005305422        0.0013246714       -0.0036135225
  O         0.0022026901       -0.0022704048        0.0230305751
  O        -0.0014626156       -0.0004396691       -0.0191706130
       3
 i =       80, time =       40.000, E =       -37.7645658426
  C        -0.0005134702        0.0012339857       -0.0034132076
  O         0.0018896392       -0.0020643335        0.0208547485
  O        -0.0011691072       -0.0004465753       -0.0172397923
       3
 i =       81, time =       40.500, E =       -37.7646516619
  C        -0.0004934188        0.0011366740       -0.0030546837
  O         0.0015727679       -0.0018457055        0.0183336222
  O        -0.0008822114       -0.0004475541       -0.0151238931
       3
 i =       82, time =       41.000, E =       -37.7647331407
  C        -0.0004709837        0.0010340609       -0.0025506124
  O         0.0012605084       -0.0016202378        0.0155157526
  O        -0.0006078759       -0.0004423941       -0.0128547426
       3
 i =       83, time =       41.500, E =       -37.7648057422
  C        -0.0004466301        0.0009270528       -0.0019187823
  O         0.0009602340       -0.0013931045        0.0124517093
  O        -0.0003512164       -0.0004308966       -0.0104617364
       3
 i =       84, time =       42.000, E =       -37.7648655097
  C        -0.0004209207        0.0008169176       -0.0011847859
  O         0.0006784709       -0.0011695160        0.0091998726
  O        -0.0001162723       -0.0004132043       -0.0079744782
       3
 i =       85, time =       42.500, E =       -37.7649093048
  C        -0.0003944168        0.0007049463       -0.0003814864
  O         0.0004201296       -0.0009539757        0.0058228873
  O         0.0000943647       -0.0003897258       -0.0054207224
       3
 i =       86, time =       43.000, E =       -37.7649349882
  C        -0.0003676148        0.0005923440        0.0004532796
  O         0.0001882708       -0.0007501690        0.0023837673
  O         0.0002795585       -0.0003610123       -0.0028245900
       3
 i =       87, time =       43.500, E =       -37.7649415301
  C        -0.0003407437        0.0004799188        0.0012865744
  O        -0.0000162088       -0.0005604148       -0.0010571746
  O         0.0004394832       -0.0003276721       -0.0002136267
       3
 i =       88, time =       44.000, E =       -37.7649290405
  C        -0.0003141766        0.0003687856        0.0020628063
  O        -0.0001941493       -0.0003859729       -0.0044310377
  O         0.0005755974       -0.0002905580        0.0023970902
       3
 i =       89, time =       44.500, E =       -37.7648987230
  C        -0.0002875166        0.0002590682        0.0027487857
  O        -0.0003478722       -0.0002265557       -0.0076807974
  O         0.0006896604       -0.0002501806        0.0049806847
       3
 i =       90, time =       45.000, E =       -37.7648527630
  C        -0.0002612538        0.0001519650        0.0033071920
  O        -0.0004804305       -0.0000817519       -0.0107552059
  O         0.0007847985       -0.0002075578        0.0075194062
       3
 i =       91, time =       45.500, E =       -37.7647941666
  C        -0.0002349978        0.0000475390        0.0037042474
  O        -0.0005950511        0.0000498674       -0.0136045321
  O         0.0008634503       -0.0001631850        0.0099934530
       3
 i =       92, time =       46.000, E =       -37.7647265659
  C        -0.0002084764       -0.0000540022        0.0039094436
  O        -0.0006948271        0.0001696597       -0.0161774188
  O         0.0009281014       -0.0001176458        0.0123786379
       3
 i =       93, time =       46.500, E =       -37.7646539965
  C        -0.0001813746       -0.0001526060        0.0039094992
  O        -0.0007825858        0.0002789349       -0.0184347231
  O         0.0009811204       -0.0000715354        0.0146468478
       3
 i =       94, time =       47.000, E =       -37.7645806615
  C        -0.0001534490       -0.0002483900        0.0037023586
  O        -0.0008615737        0.0003792768       -0.0203443826
  O         0.0010252805       -0.0000254913        0.0167666158
       3
 i =       95, time =       47.500, E =       -37.7645106912
  C        -0.0001243642       -0.0003415266        0.0032919736
  O        -0.0009350300        0.0004724440       -0.0218775670
  O         0.0010633244        0.0000199574        0.0187045676
       3
 i =       96, time =       48.000, E =       -37.7644479173
  C        -0.0000939078       -0.0004322971        0.0027001127
  O        -0.0010057827        0.0005601953       -0.0230195575
  O         0.0010978956        0.0000642786        0.0204246018
       3
 i =       97, time =       48.500, E =       -37.7643956799
  C        -0.0000619944       -0.0005209260        0.0019576736
  O        -0.0010758117        0.0006437026       -0.0237623376
  O         0.0011311324        0.0001070839        0.0218894904
       3
 i =       98, time =       49.000, E =       -37.7643566642
  C        -0.0000286778       -0.0006076689        0.0011045494
  O        -0.0011465604        0.0007238902       -0.0241067725
  O         0.0011648491        0.0001482232        0.0230622719
       3
 i =       99, time =       49.500, E =       -37.7643327726
  C         0.0000058565       -0.0006927156        0.0001884083
  O        -0.0012195387        0.0008017489       -0.0240631928
  O         0.0012009329        0.0001874286        0.0239084054
       3
 i =      100, time =       50.000, E =       -37.7643250367
  C         0.0000412747       -0.0007762439       -0.0007376723
  O        -0.0012959860        0.0008781409       -0.0236523802
  O         0.0012411008        0.0002244980        0.0243983321
       3
 i =      101, time =       50.500, E =       -37.7643335719
  C         0.0000770636       -0.0008582032       -0.0016159316
  O        -0.0013770778        0.0009538627       -0.0228987611
  O         0.0012871794        0.0002590821        0.0245015486
       3
 i =      102, time =       51.000, E =       -37.7643575672
  C         0.0001127546       -0.0009387053       -0.0024041366
  O        -0.0014641266        0.0010298262       -0.0218287712
  O         0.0013410326        0.0002909391        0.0242050094
       3
 i =      103, time =       51.500, E =       -37.7643953218
  C         0.0001476429       -0.0010174140       -0.0030505789
  O        -0.0015584234        0.0011068107       -0.0204770935
  O         0.0014046762        0.0003195638        0.0234941719
       3
 i =      104, time =       52.000, E =       -37.7644443218
  C         0.0001812389       -0.0010943077       -0.0035282369
  O        -0.0016617493        0.0011859234       -0.0188728403
  O         0.0014802878        0.0003445444        0.0223730916
       3
 i =      105, time =       52.500, E =       -37.7645013675
  C         0.0002129426       -0.0011689692       -0.0038079378
  O        -0.0017759124        0.0012682097       -0.0170518889
  O         0.0015702567        0.0003651721        0.0208495724
       3
 i =      106, time =       53.000, E =       -37.7645627446
  C         0.0002423047       -0.0012407579       -0.0038804303
  O        -0.0019023889        0.0013545476       -0.0150468294
  O         0.0016770316        0.0003805775        0.0189465985
       3
 i =      107, time =       53.500, E =       -37.7646244385
  C         0.0002690570       -0.0013096109       -0.0037462440
  O        -0.0020424612        0.0014458961       -0.0128884118
  O         0.0018034243        0.0003901651        0.0166935160
       3
 i =      108, time =       54.000, E =       -37.7646823761
  C         0.0002928106       -0.0013739009       -0.0034140157
  O        -0.0021960926        0.0015418071       -0.0106071091
  O         0.0019509914        0.0003929958        0.0141267056
       3
 i =      109, time =       54.500, E =       -37.7647326823
  C         0.0003137209       -0.0014338598       -0.0029106894
  O        -0.0023638530        0.0016428032       -0.0082299206
  O         0.0021206199        0.0003888725        0.0112980437
       3
 i =      110, time =       55.000, E =       -37.7647719351
  C         0.0003319104       -0.0014888296       -0.0022665037
  O        -0.0025452356        0.0017480234       -0.0057822956
  O         0.0023115045        0.0003778182        0.0082589467
       3
 i =      111, time =       55.500, E =       -37.7647973962
  C         0.0003476500       -0.0015382449       -0.0015198253
  O        -0.0027382767        0.0018569531       -0.0032875710
  O         0.0025215001        0.0003591333        0.0050692626
       3
 i =      112, time =       56.000, E =       -37.7648071995
  C         0.0003612860       -0.0015814681       -0.0007096316
  O        -0.0029401093        0.0019681759       -0.0007713132
  O         0.0027471851        0.0003327561        0.0017893040
       3