       3
 i =        0, time =        0.000, E =       -37.7638499609
  C        -0.0000097260        0.0000350930       -0.0000242382
  O        -0.0000936931        0.0000186417       -0.0000602677
  O         0.0001009943       -0.0000449859        0.0000784632
       3
 i =        1, time =        0.500, E =       -37.7639577815
  C        -0.0000096077        0.0000348128       -0.0000234370
  O        -0.0000930996        0.0000185443       -0.0000830853
  O         0.0001003411       -0.0000446757        0.0001006961
       3
 i =        2, time =        1.000, E =       -37.7640851206
  C        -0.0000094979        0.0000344245       -0.0000213408
  O        -0.0000924268        0.0000184723       -0.0001048520
  O         0.0000995747       -0.0000442764        0.0001209580
       3
 i =        3, time =        1.500, E =       -37.7642244380
  C        -0.0000093501        0.0000339121       -0.0000181026
  O        -0.0000916639        0.0000184236       -0.0001251954
  O         0.0000986804       -0.0000437817        0.0001389743
       3
 i =        4, time =        2.000, E =       -37.7643675475
  C        -0.0000091620        0.0000332719       -0.0000139264
  O        -0.0000907963        0.0000183951       -0.0001437481
  O         0.0000976412       -0.0000431844        0.0001545194
       3
 i =        5, time =        2.500, E =       -37.7645061009
  C        -0.0000089325        0.0000325010       -0.0000090636
  O        -0.0000898062        0.0000183834       -0.0001601631
  O         0.0000964374       -0.0000424769        0.0001674218
       3
 i =        6, time =        3.000, E =       -37.7646320818
  C        -0.0000086612        0.0000315971       -0.0000037962
  O        -0.0000886733        0.0000183840       -0.0001741244
  O         0.0000950487       -0.0000416510        0.0001775637
       3
 i =        7, time =        3.500, E =       -37.7647382273
  C        -0.0000083489        0.0000305593        0.0000015831
  O        -0.0000873760        0.0000183921       -0.0001853571
  O         0.0000934548       -0.0000406992        0.0001848753
       3
 i =        8, time =        4.000, E =       -37.7648183722
  C        -0.0000079974        0.0000293881        0.0000067888
  O        -0.0000858909        0.0000184018       -0.0001936312
  O         0.0000916348       -0.0000396136        0.0001893272
       3
 i =        9, time =        4.500, E =       -37.7648677687
  C        -0.0000076096        0.0000280861        0.0000115581
  O        -0.0000841934        0.0000184066       -0.0001987660
  O         0.0000895688       -0.0000383879        0.0001909256
       3
 i =       10, time =        5.000, E =       -37.7648833988
  C        -0.0000071891        0.0000266575        0.0000156648
  O        -0.0000822593        0.0000183997       -0.0002006370
  O         0.0000872402       -0.0000370173        0.0001897108
       3
 i =       11, time =        5.500, E =       -37.7648642357
  C        -0.0000067400        0.0000251082        0.0000189284
  O        -0.0000800687        0.0000183743       -0.0001991830
  O         0.0000846388       -0.0000355003        0.0001857576
       3
 i =       12, time =        6.000, E =       -37.7648113840
  C        -0.0000062668        0.0000234463        0.0000212206
  O        -0.0000776089        0.0000183246       -0.0001944116
  O         0.0000817623       -0.0000338388        0.0001791757
       3
 i =       13, time =        6.500, E =       -37.7647280683
  C        -0.0000057740        0.0000216813        0.0000224678
  O        -0.0000748765        0.0000182458       -0.0001864008
  O         0.0000786173       -0.0000320387        0.0001701078
       3
 i =       14, time =        7.000, E =       -37.7646194588
  C        -0.0000052657        0.0000198241        0.0000226492
  O        -0.0000718778        0.0000181345       -0.0001752981
  O         0.0000752195       -0.0000301102        0.0001587290
       3
 i =       15, time =        7.500, E =       -37.7644923362
  C        -0.0000047460        0.0000178863        0.0000217936
  O        -0.0000686296        0.0000179894       -0.0001613153
  O         0.0000715934       -0.0000280671        0.0001452413
       3
 i =       16, time =        8.000, E =       -37.7643546240
  C        -0.0000042180        0.0000158804        0.0000199760
  O        -0.0000651581        0.0000178108       -0.0001447237
  O         0.0000677697       -0.0000259260        0.0001298701
       3
 i =       17, time =        8.500, E =       -37.7642148321
  C        -0.0000036847        0.0000138190        0.0000173093
  O        -0.0000614964        0.0000176002       -0.0001258442
  O         0.0000637831       -0.0000237052        0.0001128593
       3
 i =       18, time =        9.000, E =       -37.7640814658
  C        -0.0000031480        0.0000117151        0.0000139350
  O        -0.0000576815        0.0000173603       -0.0001050355
  O         0.0000596698       -0.0000214239        0.0000944656
       3
 i =       19, time =        9.500, E =       -37.7639624592
  C        -0.0000026097        0.0000095811        0.0000100156
  O        -0.0000537515        0.0000170940       -0.0000826832
  O         0.0000554654       -0.0000191006        0.0000749538
       3
 i =       20, time =       10.000, E =       -37.7638646757
  C        -0.0000020706        0.0000074294        0.0000057287
  O        -0.0000497431        0.0000168046       -0.0000591913
  O         0.0000512028       -0.0000167531        0.0000545926
       3
 i =       21, time =       10.500, E =       -37.7637935091
  C        -0.0000015313        0.0000052720        0.0000012598
  O        -0.0000456905        0.0000164951       -0.0000349725
  O         0.0000469119       -0.0000143978        0.0000336515
       3
 i =       22, time =       11.000, E =       -37.7637526026
  C        -0.0000009921        0.0000031203       -0.0000032046
  O        -0.0000416247        0.0000161680       -0.0000104401
  O         0.0000426194       -0.0000120499        0.0000123988
       3
 i =       23, time =       11.500, E =       -37.7637436913
  C        -0.0000004530        0.0000009856       -0.0000074823
  O        -0.0000375737        0.0000158256        0.0000139978
  O         0.0000383488       -0.0000097233       -0.0000088998
       3
 i =       24, time =       12.000, E =       -37.7637665662
  C         0.0000000862       -0.0000011214       -0.0000114013
  O        -0.0000335630        0.0000154700        0.0000379437
  O         0.0000341210       -0.0000074309       -0.0000299811
       3
 i =       25, time =       12.500, E =       -37.7638191521
  C         0.0000006255       -0.0000031902       -0.0000148041
  O        -0.0000296165        0.0000151036        0.0000610154
  O         0.0000299555       -0.0000051850       -0.0000505852
       3
 i =       26, time =       13.000, E =       -37.7638976854
  C         0.0000011647       -0.0000052106       -0.0000175530
  O        -0.0000257575        0.0000147287        0.0000828498
  O         0.0000258705       -0.0000029980       -0.0000704554
       3
 i =       27, time =       13.500, E =       -37.7639969814
  C         0.0000017034       -0.0000071726       -0.0000195343
  O        -0.0000220086        0.0000143484        0.0001031078
  O         0.0000218845       -0.0000008820       -0.0000893391
       3
 i =       28, time =       14.000, E =       -37.7641107734
  C         0.0000022408       -0.0000090668       -0.0000206637
  O        -0.0000183925        0.0000139664        0.0001214799
  O         0.0000180161        0.0000011509       -0.0001069887
       3
 i =       29, time =       14.500, E =       -37.7642321061
  C         0.0000027755       -0.0000108837       -0.0000208875
  O        -0.0000149312        0.0000135868        0.0001376888
  O         0.0000142841        0.0000030884       -0.0001231646
       3
 i =       30, time =       15.000, E =       -37.7643537584
  C         0.0000033057       -0.0000126146       -0.0000201866
  O        -0.0000116454        0.0000132141        0.0001514963
  O         0.0000107077        0.0000049186       -0.0001376378
       3
 i =       31, time =       15.500, E =       -37.7644686768
  C         0.0000038289       -0.0000142514       -0.0000185839
  O        -0.0000085539        0.0000128528        0.0001627092
  O         0.0000073059        0.0000066304       -0.0001501918
       3
 i =       32, time =       16.000, E =       -37.7645703870
  C         0.0000043419       -0.0000157865       -0.0000161427
  O        -0.0000056716        0.0000125070        0.0001711839
  O         0.0000040958        0.0000082140       -0.0001606283
       3
 i =       33, time =       16.500, E =       -37.7646533592
  C         0.0000048410       -0.0000172134       -0.0000129652
  O        -0.0000030092        0.0000121804        0.0001768285
  O         0.0000010918        0.0000096616       -0.0001687717
       3
 i =       34, time =       17.000, E =       -37.7647133024
  C         0.0000053221       -0.0000185264       -0.0000091925
  O        -0.0000005721        0.0000118753        0.0001796053
  O        -0.0000016950        0.0000109679       -0.0001744729
       3
 i =       35, time =       17.500, E =       -37.7647473757
  C         0.0000057804       -0.0000197210       -0.0000049982
  O         0.0000016405        0.0000115928        0.0001795301
  O        -0.0000042586        0.0000121302       -0.0001776135
       3
 i =       36, time =       18.000, E =       -37.7647543073
  C         0.0000062115       -0.0000207943       -0.0000005827
  O         0.0000036354        0.0000113323        0.0001766715
  O        -0.0000065977        0.0000131493       -0.0001781104
       3
 i =       37, time =       18.500, E =       -37.7647344249
  C         0.0000066106       -0.0000217448        0.0000038355
  O         0.0000054250        0.0000110917        0.0001711465
  O        -0.0000087165        0.0000140289       -0.0001759183
       3
 i =       38, time =       19.000, E =       -37.7646895994
  C         0.0000069734       -0.0000225720        0.0000080297
  O         0.0000070261        0.0000108673        0.0001631164
  O        -0.0000106245        0.0000147753       -0.0001710324
       3
 i =       39, time =       19.500, E =       -37.7646231106
  C         0.0000072958       -0.0000232764        0.0000117775
  O         0.0000084587        0.0000106546        0.0001527800
  O        -0.0000123355        0.0000153972       -0.0001634912
       3
 i =       40, time =       20.000, E =       -37.7645394488
  C         0.0000075747       -0.0000238601        0.0000148759
  O         0.0000097451        0.0000104479        0.0001403655
  O        -0.0000138673        0.0000159052       -0.0001533786
       3
 i =       41, time =       20.500, E =       -37.7644440592
  C         0.0000078077       -0.0000243260        0.0000171516
  O         0.0000109076        0.0000102410        0.0001261243
  O        -0.0000152398        0.0000163109       -0.0001408240
       3
 i =       42, time =       21.000, E =       -37.7643430489
  C         0.0000079937       -0.0000246781        0.0000184738
  O         0.0000119683        0.0000100276        0.0001103229
  O        -0.0000164740        0.0000166266       -0.0001260035
       3
 i =       43, time =       21.500, E =       -37.7642428555
  C         0.0000081325       -0.0000249204        0.0000187612
  O         0.0000129476        0.0000098016        0.0000932383
  O        -0.0000175912        0.0000168640       -0.0001091397
       3
 i =       44, time =       22.000, E =       -37.7641498755
  C         0.0000082249       -0.0000250578        0.0000179898
  O         0.0000138645        0.0000095575        0.0000751520
  O        -0.0000186122        0.0000170341       -0.0000905000
       3
 i =       45, time =       22.500, E =       -37.7640700616
  C         0.0000082730       -0.0000250950        0.0000161978
  O         0.0000147362        0.0000092908        0.0000563413
  O        -0.0000195570        0.0000171466       -0.0000703921
       3
 i =       46, time =       23.000, E =       -37.7640085393
  C         0.0000082798       -0.0000250367        0.0000134831
  O         0.0000155782        0.0000089971        0.0000370727
  O        -0.0000204446        0.0000172098       -0.0000491560
       3
 i =       47, time =       23.500, E =       -37.7639692841
  C         0.0000082491       -0.0000248871        0.0000099965
  O         0.0000164042        0.0000086722        0.0000176010
  O        -0.0000212925        0.0000172311       -0.0000271568
       3
 i =       48, time =       24.000, E =       -37.7639548626
  C         0.0000081852       -0.0000246501        0.0000059339
  O         0.0000172262        0.0000083121       -0.0000018318
  O        -0.0000221166        0.0000172171       -0.0000047787
       3
 i =       49, time =       24.500, E =       -37.7639662519
  C         0.0000080925       -0.0000243289        0.0000015236
  O         0.0000180551        0.0000079127       -0.0000209955
  O        -0.0000229312        0.0000171734        0.0000175831
       3
 i =       50, time =       25.000, E =       -37.7640027696
  C         0.0000079757       -0.0000239260       -0.0000029870
  O         0.0000189008        0.0000074700       -0.0000396715
  O        -0.0000237500        0.0000171047        0.0000395321
       3
 i =       51, time =       25.500, E =       -37.7640621290
  C         0.0000078389       -0.0000234432       -0.0000073474
  O         0.0000197732        0.0000069793       -0.0000576518
  O        -0.0000245862        0.0000170153        0.0000606809
       3
 i =       52, time =       26.000, E =       -37.7641406123
  C         0.0000076857       -0.0000228815       -0.0000113200
  O         0.0000206823        0.0000064355       -0.0000747370
  O        -0.0000254527        0.0000169086        0.0000806598
       3
 i =       53, time =       26.500, E =       -37.7642333384
  C         0.0000075190       -0.0000222415       -0.0000146939
  O         0.0000216381        0.0000058334       -0.0000907333
  O        -0.0000263625        0.0000167875        0.0000991247
       3
 i =       54, time =       27.000, E =       -37.7643346182
  C         0.0000073410       -0.0000215234       -0.0000172973
  O         0.0000226507        0.0000051669       -0.0001054533
  O        -0.0000273279        0.0000166547        0.0001157655
       3
 i =       55, time =       27.500, E =       -37.7644383751
  C         0.0000071525       -0.0000207270       -0.0000190051
  O         0.0000237308        0.0000044295       -0.0001187183
  O        -0.0000283611        0.0000165127        0.0001303153
       3
 i =       56, time =       28.000, E =       -37.7645385818
  C         0.0000069539       -0.0000198524       -0.0000197457
  O         0.0000248894        0.0000036142       -0.0001303622
  O        -0.0000294739        0.0000163641        0.0001425574
       3
 i =       57, time =       28.500, E =       -37.7646296550
  C         0.0000067445       -0.0000188997       -0.0000195024
  O         0.0000261376        0.0000027135       -0.0001402332
  O        -0.0000306775        0.0000162114        0.0001523281
       3
 i =       58, time =       29.000, E =       -37.7647067756
  C         0.0000065229       -0.0000178697       -0.0000183121
  O         0.0000274860        0.0000017206       -0.0001481950
  O        -0.0000319821        0.0000160561        0.0001595170
       3
 i =       59, time =       29.500, E =       -37.7647661370
  C         0.0000062874       -0.0000167635       -0.0000162627
  O         0.0000289445        0.0000006291       -0.0001541281
  O        -0.0000333956        0.0000158992        0.0001640664
       3
 i =       60, time =       30.000, E =       -37.7648051097
  C         0.0000060356       -0.0000155832       -0.0000134822
  O         0.0000305212       -0.0000005659       -0.0001579339
  O        -0.0000349236        0.0000157410        0.0001659683
       3
 i =       61, time =       30.500, E =       -37.7648223287
  C         0.0000057654       -0.0000143315       -0.0000101279
  O         0.0000322214       -0.0000018681       -0.0001595377
  O        -0.0000365678        0.0000155814        0.0001652599
       3
 i =       62, time =       31.000, E =       -37.7648177122
  C         0.0000054745       -0.0000130123       -0.0000063794
  O         0.0000340470       -0.0000032789       -0.0001588921
  O        -0.0000383254        0.0000154196        0.0001620218
       3
 i =       63, time =       31.500, E =       -37.7647924150
  C         0.0000051612       -0.0000116303       -0.0000024271
  O         0.0000359955       -0.0000047973       -0.0001559805
  O        -0.0000401886        0.0000152546        0.0001563738
       3
 i =       64, time =       32.000, E =       -37.7647487278
  C         0.0000048237       -0.0000101910        0.0000015392
  O         0.0000380600       -0.0000064199       -0.0001508190
  O        -0.0000421451        0.0000150845        0.0001484689
       3
 i =       65, time =       32.500, E =       -37.7646899267
  C         0.0000044614       -0.0000087014        0.0000053370
  O         0.0000402289       -0.0000081402       -0.0001434582
  O        -0.0000441782        0.0000149075        0.0001384908
       3
 i =       66, time =       33.000, E =       -37.7646200778
  C         0.0000040738       -0.0000071690        0.0000088002
  O         0.0000424869       -0.0000099491       -0.0001339838
  O        -0.0000462683        0.0000147216        0.0001266478
       3
 i =       67, time =       33.500, E =       -37.7645438062
  C         0.0000036614       -0.0000056021        0.0000117861
  O         0.0000448157       -0.0000118351       -0.0001225171
  O        -0.0000483933        0.0000145249        0.0001131676
       3
 i =       68, time =       34.000, E =       -37.7644660388
  C         0.0000032253       -0.0000040095        0.0000141780
  O         0.0000471942       -0.0000137849       -0.0001092130
  O        -0.0000505298        0.0000143155        0.0000982938
       3
 i =       69, time =       34.500, E =       -37.7643917330
  C         0.0000027671       -0.0000024007        0.0000158898
  O         0.0000495995       -0.0000157836       -0.0000942586
  O        -0.0000526539        0.0000140922        0.0000822799
       3
 i =       70, time =       35.000, E =       -37.7643256020
  C         0.0000022891       -0.0000007851        0.0000168668
  O         0.0000520079       -0.0000178149       -0.0000778698
  O        -0.0000547416        0.0000138538        0.0000653850
       3
 i =       71, time =       35.500, E =       -37.7642718512
  C         0.0000017941        0.0000008272        0.0000170834
  O         0.0000543948       -0.0000198623       -0.0000602879
  O        -0.0000567695        0.0000135997        0.0000478714
       3
 i =       72, time =       36.000, E =       -37.7642339407
  C         0.0000012854        0.0000024264        0.0000165491
  O         0.0000567356       -0.0000219081       -0.0000417784
  O        -0.0000587147        0.0000133297        0.0000299984
       3
 i =       73, time =       36.500, E =       -37.7642143857
  C         0.0000007665        0.0000040023        0.0000153048
  O         0.0000590054       -0.0000239344       -0.0000226254
  O        -0.0000605550        0.0000130438        0.0000120193
       3
 i =       74, time =       37.000, E =       -37.7642146100
  C         0.0000002412        0.0000055450        0.0000134117
  O         0.0000611799       -0.0000259231       -0.0000031252
  O        -0.0000622696        0.0000127426       -0.0000058174
       3
 i =       75, time =       37.500, E =       -37.7642348558
  C        -0.0000002864        0.0000070448        0.0000109587
  O         0.0000632348       -0.0000278556        0.0000164143
  O        -0.0000638387        0.0000124269       -0.0000232741
       3
 i =       76, time =       38.000, E =       -37.7642741656
  C        -0.0000008125        0.0000084922        0.0000080593
  O         0.0000651468       -0.0000297130        0.0000356795
  O        -0.0000652447        0.0000120978       -0.0000401274
       3
 i =       77, time =       38.500, E =       -37.7643304352
  C        -0.0000013330        0.0000098780        0.0000048401
  O         0.0000668937       -0.0000314770        0.0000543585
  O        -0.0000664722        0.0000117570       -0.0000561666
       3
 i =       78, time =       39.000, E =       -37.7644005392
  C        -0.0000018440        0.0000111937        0.0000014420
  O         0.0000684555       -0.0000331298        0.0000721447
  O        -0.0000675092        0.0000114067       -0.0000711978
       3
 i =       79, time =       39.500, E =       -37.7644805216
  C        -0.0000023421        0.0000124309       -0.0000019845
  O         0.0000698154       -0.0000346547        0.0000887436
  O        -0.0000683473        0.0000110494       -0.0000850454
       3
 i =       80, time =       40.000, E =       -37.7645658426
  C        -0.0000028237        0.0000135825       -0.0000052858
  O         0.0000709608       -0.0000360378        0.0001038784
  O        -0.0000689826        0.0000106883       -0.0000975530
       3
 i =       81, time =       40.500, E =       -37.7646516619
  C        -0.0000032861        0.0000146416       -0.0000083102
  O         0.0000718845       -0.0000372678        0.0001172962
  O        -0.0000694156        0.0000103268       -0.0001085843
       3
 i =       82, time =       41.000, E =       -37.7647331407
  C        -0.0000037266        0.0000156028       -0.0000109158
  O         0.0000725851       -0.0000383372        0.0001287746
  O        -0.0000696515        0.0000099688       -0.0001180231
       3
 i =       83, time =       41.500, E =       -37.7648057422
  C        -0.0000041432        0.0000164613       -0.0000129755
  O         0.0000730667       -0.0000392424        0.0001381260
  O        -0.0000696993        0.0000096183       -0.0001257747
       3
 i =       84, time =       42.000, E =       -37.7648655097
  C        -0.0000045345        0.0000172136       -0.0000143829
  O         0.0000733389       -0.0000399836        0.0001452016
  O        -0.0000695714        0.0000092793       -0.0001317652
       3
 i =       85, time =       42.500, E =       -37.7649093048
  C        -0.0000048993        0.0000178573       -0.0000150596
  O         0.0000734155       -0.0000405644        0.0001498964
  O        -0.0000692833        0.0000089560       -0.0001359416
       3
 i =       86, time =       43.000, E =       -37.7649349882
  C        -0.0000052371        0.0000183913       -0.0000149608
  O         0.0000733138       -0.0000409920        0.0001521515
  O        -0.0000688521        0.0000086518       -0.0001382706
       3
 i =       87, time =       43.500, E =       -37.7649415301
  C        -0.0000055478        0.0000188157       -0.0000140757
  O         0.0000730532       -0.0000412757        0.0001519534
  O        -0.0000682960        0.0000083704       -0.0001387386
       3
 i =       88, time =       44.000, E =       -37.7649290405
  C        -0.0000058315        0.0000191317       -0.0000124354
  O         0.0000726535       -0.0000414265        0.0001493363
  O        -0.0000676330        0.0000081145       -0.0001373488
       3
 i =       89, time =       44.500, E =       -37.7648987230
  C        -0.0000060886        0.0000193411       -0.0000101131
  O         0.0000721341       -0.0000414562        0.0001443803
  O        -0.0000668805        0.0000078867       -0.0001341207
       3
 i =       90, time =       45.000, E =       -37.7648527630
  C        -0.0000063194        0.0000194467       -0.0000072148
  O         0.0000715131       -0.0000413766        0.0001372051
  O        -0.0000660549        0.0000076890       -0.0001290909
       3
 i =       91, time =       45.500, E =       -37.7647941666
  C        -0.0000065243        0.0000194519       -0.0000038797
  O         0.0000708065       -0.0000411990        0.0001279662
  O        -0.0000651707        0.0000075228       -0.0001223099
       3
 i =       92, time =       46.000, E =       -37.7647265659
  C        -0.0000067035        0.0000193604       -0.0000002761
  O         0.0000700285       -0.0000409341        0.0001168543
  O        -0.0000642409        0.0000073893       -0.0001138437
       3
 i =       93, time =       46.500, E =       -37.7646539965
  C        -0.0000068569        0.0000191760        0.0000034079
  O         0.0000691911       -0.0000405914        0.0001040907
  O        -0.0000632770        0.0000072892       -0.0001037761
       3
 i =       94, time =       47.000, E =       -37.7645806615
  C        -0.0000069844        0.0000189026        0.0000069782
  O         0.0000683045       -0.0000401795        0.0000899193
  O        -0.0000622883        0.0000072228       -0.0000922105
       3
 i =       95, time =       47.500, E =       -37.7645106912
  C        -0.0000070853        0.0000185435        0.0000102430
  O         0.0000673760       -0.0000397059        0.0000746029
  O        -0.0000612824        0.0000071898       -0.0000792714
       3
 i =       96, time =       48.000, E =       -37.7644479173
  C        -0.0000071588        0.0000181022        0.0000130233
  O         0.0000664105       -0.0000391762        0.0000584162
  O        -0.0000602642        0.0000071898       -0.0000651052
       3
 i =       97, time =       48.500, E =       -37.7643956799
  C        -0.0000072038        0.0000175813        0.0000151662
  O         0.0000654111       -0.0000385951        0.0000416389
  O        -0.0000592370        0.0000072219       -0.0000498815
       3
 i =       98, time =       49.000, E =       -37.7643566642
  C        -0.0000072194        0.0000169834        0.0000165520
  O         0.0000643788       -0.0000379661        0.0000245501
  O        -0.0000582019        0.0000072850       -0.0000337937
       3
 i =       99, time =       49.500, E =       -37.7643327726
  C        -0.0000072046        0.0000163103        0.0000171025
  O         0.0000633133       -0.0000372917        0.0000074227
  O        -0.0000571585        0.0000073779       -0.0000170577
       3
 i =      100, time =       50.000, E =       -37.7643250367
  C        -0.0000071584        0.0000155638        0.0000167868
  O         0.0000622128       -0.0000365733       -0.0000094834
  O        -0.0000561044        0.0000074991        0.0000000896
       3
 i =      101, time =       50.500, E =       -37.7643335719
  C        -0.0000070804        0.0000147451        0.0000156253
  O         0.0000610739       -0.0000358116       -0.0000259253
  O        -0.0000550357        0.0000076469        0.0000173917
       3
 i =      102, time =       51.000, E =       -37.7643575672
  C        -0.0000069705        0.0000138555        0.0000136851
  O         0.0000598920       -0.0000350062       -0.0000416782
  O        -0.0000539466        0.0000078195        0.0000345773
       3
 i =      103, time =       51.500, E =       -37.7643953218
  C        -0.0000068290        0.0000128960        0.0000110768
  O         0.0000586612       -0.0000341559       -0.0000565383
  O        -0.0000528298        0.0000080145        0.0000513653
       3
 i =      104, time =       52.000, E =       -37.7644443218
  C        -0.0000066568        0.0000118680        0.0000079472
  O         0.0000573742       -0.0000332586       -0.0000703238
  O        -0.0000516761        0.0000082294        0.0000674704
       3
 i =      105, time =       52.500, E =       -37.7645013675
  C        -0.0000064552        0.0000107729        0.0000044694
  O         0.0000560222       -0.0000323116       -0.0000828740
  O        -0.0000504745        0.0000084613        0.0000826106
       3
 i =      106, time =       53.000, E =       -37.7645627446
  C        -0.0000062261        0.0000096125        0.0000008341
  O         0.0000545951       -0.0000313110       -0.0000940514
  O        -0.0000492124        0.0000087064        0.0000965133
       3
 i =      107, time =       53.500, E =       -37.7646244385
  C        -0.0000059717        0.0000083894       -0.0000027641
  O         0.0000530819       -0.0000302528       -0.0001037394
  O        -0.0000478751        0.0000089606        0.0001089235
       3
 i =      108, time =       54.000, E =       -37.7646823761
  C        -0.0000056944        0.0000071065       -0.0000061350
  O         0.0000514714       -0.0000291324       -0.0001118419
  O        -0.0000464468        0.0000092193        0.0001196084
       3
 i =      109, time =       54.500, E =       -37.7647326823
  C        -0.0000053967        0.0000057679       -0.0000091051
  O         0.0000497524       -0.0000279457       -0.0001182829
  O        -0.0000449109        0.0000094773        0.0001283657
       3
 i =      110, time =       55.000, E =       -37.7647719351
  C        -0.0000050814        0.0000043780       -0.0000115282
  O         0.0000479140       -0.0000266888       -0.0001230045
  O        -0.0000432511        0.0000097296        0.0001350298
       3
 i =      111, time =       55.500, E =       -37.7647973962
  C        -0.0000047506        0.0000029416       -0.0000132904
  O         0.0000459466       -0.0000253586       -0.0001259665
  O        -0.0000414526        0.0000099708        0.0001394750
       3
 i =      112, time =       56.000, E =       -37.7648071995
  C        -0.0000044066        0.0000014645       -0.0000143147
  O         0.0000438428       -0.0000239528       -0.0001271468
  O        -0.0000395030        0.0000101954        0.0001416189
       3