#     Step Nr.          Time[fs]        Kin.[a.u.]          Temp[K]            Pot.[a.u.]        Cons Qty[a.u.]        UsedTime[s]
         0            0.000000         0.000475022        50.000000000       -37.763849961       -37.763295768         0.000000000
         1            0.500000         0.000576157        60.645224181       -37.763957782       -37.763296187        76.850064741
         2            1.000000         0.000695347        73.191006531       -37.764085121       -37.763296663        12.481728312
         3            1.500000         0.000824776        86.814433947       -37.764224438       -37.763297187        12.458210406
         4            2.000000         0.000956039       100.630995027       -37.764367547       -37.763297726        12.406704766
         5            2.500000         0.001080631       113.745338060       -37.764506101       -37.763298247        10.136745083
         6            3.000000         0.001190444       125.304041415       -37.764632082       -37.763298728        10.124526680
         7            3.500000         0.001278226       134.543782442       -37.764738227       -37.763299149        10.123398407
         8            4.000000         0.001337962       140.831511073       -37.764818372       -37.763299491        10.087749764
         9            4.500000         0.001365219       143.700492944       -37.764867769       -37.763299736         7.758531986
        10            5.000000         0.001357463       142.884130656       -37.764883399       -37.763299864         7.769103544
        11            5.500000         0.001314307       138.341585230       -37.764864236       -37.763299863        10.113497505
        12            6.000000         0.001237609       130.268471405       -37.764811384       -37.763299729        10.102017879
        13            6.500000         0.001131393       119.088454303       -37.764728068       -37.763299469        10.059596724
        14            7.000000         0.001001605       105.427155962       -37.764619459       -37.763299098        10.037283765
        15            7.500000         0.000855680        90.067382495       -37.764492336       -37.763298649        10.056512054
        16            8.000000         0.000702021        73.893427683       -37.764354624       -37.763298153        10.136586986
        17            8.500000         0.000549387        57.827487847       -37.764214832       -37.763297642        12.449000547
        18            9.000000         0.000406277        42.763953406       -37.764081466       -37.763297151        12.405802311
        19            9.500000         0.000280373        29.511533601       -37.763962459       -37.763296718        12.463285073
        20           10.000000         0.000178088        18.745262720       -37.763864676       -37.763296368        12.389174070
        21           10.500000         0.000104222        10.970252152       -37.763793509       -37.763296123        12.430651121
        22           11.000000         0.000061744         6.499086965       -37.763752603       -37.763295994        12.429562597
        23           11.500000         0.000051702         5.442043912       -37.763743691       -37.763295987        12.423247267
        24           12.000000         0.000073239         7.709025779       -37.763766566       -37.763296099        12.420278082
        25           12.500000         0.000123714        13.021870799       -37.763819152       -37.763296321        12.412116349
        26           13.000000         0.000198897        20.935584798       -37.763897685       -37.763296638        12.451727781
        27           13.500000         0.000293254        30.867415536       -37.763996981       -37.763297030        12.456004398
        28           14.000000         0.000400280        42.132743528       -37.764110773       -37.763297469        10.110149506
        29           14.500000         0.000512884        53.985300031       -37.764232106       -37.763297931        10.101782725
        30           15.000000         0.000623812        65.661309183       -37.764353758       -37.763298391        10.035072584
        31           15.500000         0.000726070        76.424851757       -37.764468677       -37.763298821        10.067417127
        32           16.000000         0.000813343        85.611076140       -37.764570387       -37.763299199        10.079250178
        33           16.500000         0.000880355        92.664586559       -37.764653359       -37.763299506        10.121273732
        34           17.000000         0.000923160        97.170136255       -37.764713302       -37.763299728         7.755999204
        35           17.500000         0.000939347        98.873981487       -37.764747376       -37.763299858         7.744253622
        36           18.000000         0.000928151        97.695556107       -37.764754307       -37.763299889         7.755402426
        37           18.500000         0.000890447        93.726842254       -37.764734425       -37.763299824        10.119691154
        38           19.000000         0.000828655        87.222772366       -37.764689599       -37.763299669        10.122506352
        39           19.500000         0.000746572        78.582838191       -37.764623111       -37.763299433        10.090684873
        40           20.000000         0.000649120        68.325179872       -37.764539449       -37.763299134        10.088319312
        41           20.500000         0.000542059        57.056146778       -37.764444059       -37.763298783        10.060152814
        42           21.000000         0.000431658        45.435601526       -37.764343049       -37.763298403        10.086376009
        43           21.500000         0.000324353        34.140774098       -37.764242856       -37.763298015        10.072264162
        44           22.000000         0.000226370        23.827262845       -37.764149875       -37.763297646        12.444919304
        45           22.500000         0.000143353        15.089087436       -37.764070062       -37.763297320        12.460409222
        46           23.000000         0.000080014         8.422165988       -37.764008539       -37.763297062        12.426078597
        47           23.500000         0.000039853         4.194868138       -37.763969284       -37.763296888        12.424035768
        48           24.000000         0.000024943         2.625455430       -37.763954863       -37.763296813        12.470128016
        49           24.500000         0.000035794         3.767610974       -37.763966252       -37.763296843        12.502970425
        50           25.000000         0.000071316         7.506557740       -37.764002770       -37.763296976        12.558863588
        51           25.500000         0.000128893        13.567005918       -37.764062129       -37.763297202        12.508034415
        52           26.000000         0.000204566        21.532229659       -37.764140612       -37.763297506        12.499792529
        53           26.500000         0.000293301        30.872377790       -37.764233338       -37.763297864        10.120562530
        54           27.000000         0.000389337        40.980924366       -37.764334618       -37.763298249        10.114610395
        55           27.500000         0.000486590        51.217643308       -37.764438375       -37.763298634        10.070802033
        56           28.000000         0.000579085        60.953479754       -37.764538582       -37.763298996        10.062385970
        57           28.500000         0.000661341        69.611527734       -37.764629655       -37.763299316        10.072123052
        58           29.000000         0.000728689        76.700513011       -37.764706776       -37.763299576        10.123446109
        59           29.500000         0.000777523        81.840652569       -37.764766137       -37.763299765        10.119010849
        60           30.000000         0.000805453        84.780539908       -37.764805110       -37.763299876        10.064021331
        61           30.500000         0.000811387        85.405184849       -37.764822329       -37.763299909        10.095178501
        62           31.000000         0.000795544        83.737546793       -37.764817712       -37.763299867         7.729426457
        63           31.500000         0.000759389        79.931927254       -37.764792415       -37.763299753        10.060467898
        64           32.000000         0.000705506        74.260338206       -37.764748728       -37.763299577        10.192501235
        65           32.500000         0.000637428        67.094564618       -37.764689927       -37.763299348        10.059273206
        66           33.000000         0.000559418        58.883302906       -37.764620078       -37.763299081        10.081328274
        67           33.500000         0.000476218        50.125817425       -37.764543806       -37.763298790        10.134109049
        68           34.000000         0.000392788        41.344137912       -37.764466039       -37.763298492        10.102576739
        69           34.500000         0.000314029        33.054088983       -37.764391733       -37.763298204        10.055535971
        70           35.000000         0.000244515        25.737217139       -37.764325602       -37.763297942        10.148284452
        71           35.500000         0.000188251        19.815015141       -37.764271851       -37.763297725        10.089167018
        72           36.000000         0.000148459        15.626520462       -37.764233941       -37.763297564        12.442162872
        73           36.500000         0.000127397        13.409542374       -37.764214386       -37.763297469        10.098808386
        74           37.000000         0.000126236        13.287356956       -37.764214610       -37.763297448        10.147398416
        75           37.500000         0.000144994        15.261803345       -37.764234856       -37.763297503        12.416987460
        76           38.000000         0.000182527        19.212506481       -37.764274166       -37.763297631        10.067252321
        77           38.500000         0.000236588        24.902873393       -37.764330435       -37.763297825        12.402942096
        78           39.000000         0.000303952        31.993404406       -37.764400539       -37.763298073        12.433437243
        79           39.500000         0.000380602        40.061479018       -37.764480522       -37.763298358        10.052577878
        80           40.000000         0.000461972        48.626375303       -37.764565843       -37.763298661        10.133310363
        81           40.500000         0.000543219        57.178268137       -37.764651662       -37.763298966        10.098367511
        82           41.000000         0.000619526        65.210205720       -37.764733141       -37.763299252        10.070035358
        83           41.500000         0.000686401        72.249330932       -37.764805742       -37.763299503        10.075681704
        84           42.000000         0.000739953        77.886102894       -37.764865510       -37.763299705        10.073151725
        85           42.500000         0.000777140        81.800350539       -37.764909305       -37.763299847         7.721633310
        86           43.000000         0.000795947        83.779959918       -37.764934988       -37.763299920         7.723714784
        87           43.500000         0.000795489        83.731758041       -37.764941530       -37.763299926         5.360532112
        88           44.000000         0.000776042        81.684820947       -37.764929041       -37.763299870         7.722067639
        89           44.500000         0.000738995        77.785270002       -37.764898723       -37.763299752        10.102327474
        90           45.000000         0.000686710        72.281838386       -37.764852763       -37.763299576        10.075657506
        91           45.500000         0.000622341        65.506524720       -37.764794167       -37.763299362        10.099442377
        92           46.000000         0.000549640        57.854089767       -37.764726566       -37.763299121        10.133400613
        93           46.500000         0.000472717        49.757342777       -37.764653997       -37.763298866        10.141055143
        94           47.000000         0.000395794        41.660544997       -37.764580662       -37.763298613        10.111877689
        95           47.500000         0.000322966        33.994855537       -37.764510691       -37.763298376        10.092337080
        96           48.000000         0.000257988        27.155344089       -37.764447917       -37.763298167        10.127445326
        97           48.500000         0.000204083        21.481418094       -37.764395680       -37.763297997        10.138844567
        98           49.000000         0.000163801        17.241362064       -37.764356664       -37.763297875        10.137984085
        99           49.500000         0.000138900        14.620380106       -37.764332773       -37.763297807        10.113828544
       100           50.000000         0.000130277        13.712757243       -37.764325037       -37.763297796        10.093218134
       101           50.500000         0.000137931        14.518353135       -37.764333572       -37.763297845        10.084922913
       102           51.000000         0.000160958        16.942152147       -37.764357567       -37.763297949        10.056426441
       103           51.500000         0.000197593        20.798240253       -37.764395322       -37.763298105        10.122367539
       104           52.000000         0.000245281        25.817874534       -37.764444322       -37.763298305        10.120335224
       105           52.500000         0.000300806        31.662312951       -37.764501367       -37.763298539        12.437038973
       106           53.000000         0.000360454        37.940708238       -37.764562745       -37.763298793        10.175356944
       107           53.500000         0.000420222        44.231841963       -37.764624439       -37.763299049        10.104991415
       108           54.000000         0.000476056        50.108840779       -37.764682376       -37.763299293        10.056907050
       109           54.500000         0.000524108        55.166678448       -37.764732682       -37.763299510         7.713863526
       110           55.000000         0.000560992        59.049020009       -37.764771935       -37.763299685         7.716651748
       111           55.500000         0.000584013        61.472208202       -37.764797396       -37.763299805         7.716051560
       112           56.000000         0.000591361        62.245565914       -37.764807199       -37.763299865         7.731086457
       113           56.500000         0.000582237        61.285229418       -37.764800484       -37.763299860         7.690367598
       114           57.000000         0.000556923        58.620675423       -37.764777456       -37.763299790         7.705681604
       115           57.500000         0.000516750        54.392135575       -37.764739376       -37.763299660        10.065519586
       116           58.000000         0.000464008        48.840641315       -37.764688464       -37.763299477        10.101592776
       117           58.500000         0.000401777        42.290355123       -37.764627753       -37.763299255        10.102335018
       118           59.000000         0.000333711        35.125819904       -37.764560871       -37.763299011        10.098776893
       119           59.500000         0.000263794        27.766505366       -37.764491804       -37.763298759        10.065007687
       120           60.000000         0.000196083        20.639388854       -37.764424639       -37.763298516        10.088509545
       121           60.500000         0.000134457        14.152749689       -37.764363309       -37.763298296        10.084972907
       122           61.000000         0.000082390         8.672234371       -37.764311355       -37.763298111        10.094357260
       123           61.500000         0.000042760         4.500821106       -37.764271734       -37.763297973        10.050760924
       124           62.000000         0.000017702         1.863319774       -37.764246649       -37.763297888        10.047626588
       125           62.500000         0.000008510         0.895716927       -37.764237448       -37.763297860        10.103095113
       126           63.000000         0.000015577         1.639610402       -37.764244557       -37.763297891        10.156063799
       127           63.500000         0.000038397         4.041568072       -37.764267475       -37.763297976        10.111843798
       128           64.000000         0.000075596         7.957090832       -37.764304814       -37.763298113        10.099899718
       129           64.500000         0.000125019        13.159285434       -37.764354387       -37.763298293        10.138760438
       130           65.000000         0.000183846        19.351286038       -37.764413330       -37.763298503        10.080104991
       131           65.500000         0.000248737        26.181590894       -37.764478263       -37.763298735        10.068445181
       132           66.000000         0.000316016        33.263277647       -37.764545479       -37.763298973        10.136118991
       133           66.500000         0.000381867        40.194621002       -37.764611144       -37.763299205        10.103791649
       134           67.000000         0.000442543        46.581236088       -37.764671511       -37.763299418        10.145072764
       135           67.500000         0.000494578        52.058377447       -37.764723129       -37.763299600        10.094011772
       136           68.000000         0.000534990        56.312110971       -37.764763042       -37.763299739         7.785021958
       137           68.500000         0.000561460        59.098257603       -37.764788962       -37.763299830         7.731691186
       138           69.000000         0.000572488        60.259091384       -37.764799415       -37.763299863         7.747301376
       139           69.500000         0.000567494        59.733381894       -37.764793843       -37.763299837         7.711561691
       140           70.000000         0.000546876        57.563170951       -37.764772655       -37.763299752         7.726629078
       141           70.500000         0.000512012        53.893443011       -37.764737228       -37.763299607        10.169681454
       142           71.000000         0.000465177        48.963714085       -37.764689839       -37.763299418         7.798967783
       143           71.500000         0.000409440        43.096966475       -37.764633551       -37.763299192        10.136703348
       144           72.000000         0.000348475        36.679854371       -37.764572030       -37.763298939        10.059597178
       145           72.500000         0.000286322        30.137738183       -37.764509329       -37.763298678        10.090031910
       146           73.000000         0.000227141        23.908415124       -37.764449624       -37.763298428        10.039060741
       147           73.500000         0.000174933        18.413160101       -37.764396935       -37.763298204        10.086235337
       148           74.000000         0.000133267        14.027442393       -37.764354850       -37.763298024        10.090804082
       149           74.500000         0.000105035        11.055809413       -37.764326273       -37.763297898        10.073198144
       150           75.000000         0.000092267         9.711901905       -37.764313229       -37.763297836        10.085406648
       151           75.500000         0.000096007        10.105537371       -37.764316736       -37.763297840        10.082329927
       152           76.000000         0.000116262        12.237494079       -37.764336757       -37.763297907        10.096758281
       153           76.500000         0.000152025        16.001914726       -37.764372225       -37.763298033        10.059519133
       154           77.000000         0.000201369        21.195703964       -37.764421141       -37.763298207        10.064351410
       155           77.500000         0.000261581        27.533517154       -37.764480725       -37.763298416        10.112333226
       156           78.000000         0.000329353        34.667085575       -37.764547615       -37.763298649        10.060180944
       157           78.500000         0.000400986        42.207114120       -37.764618079       -37.763298889        10.090148161
       158           79.000000         0.000472607        49.745732820       -37.764688237       -37.763299124        10.048870226
       159           79.500000         0.000540366        56.877983567       -37.764754268       -37.763299343        10.067454709
       160           80.000000         0.000600639        63.222204625       -37.764812600       -37.763299535        10.097620919
       161           80.500000         0.000650193        68.438162262       -37.764860074       -37.763299695        10.085062147
       162           81.000000         0.000686358        72.244861022       -37.764894101       -37.763299814         7.714242900
       163           81.500000         0.000707170        74.435410802       -37.764912785       -37.763299879         7.698347634
       164           82.000000         0.000711457        74.886663010       -37.764915028       -37.763299890        10.036644802
       165           82.500000         0.000698945        73.569655569       -37.764900606       -37.763299847         7.748793484
       166           83.000000         0.000670301        70.554644898       -37.764870213       -37.763299748        10.051904570
       167           83.500000         0.000627119        66.009411897       -37.764825451       -37.763299598        10.039242435
       168           84.000000         0.000571860        60.192950325       -37.764768772       -37.763299402        10.100864438
       169           84.500000         0.000507728        53.442502957       -37.764703365       -37.763299169        10.065928833
       170           85.000000         0.000438490        46.154632649       -37.764632983       -37.763298914        10.065794944
       171           85.500000         0.000368263        38.762671658       -37.764561732       -37.763298654        10.077272225
       172           86.000000         0.000301266        31.710732745       -37.764493823       -37.763298403        10.045373267
       173           86.500000         0.000241561        25.426266313       -37.764433318       -37.763298178        10.030962799
       174           87.000000         0.000192797        20.293448643       -37.764383866       -37.763297993        10.058093431
       175           87.500000         0.000157978        16.628529144       -37.764348466       -37.763297860        12.396644266
       176           88.000000         0.000139268        14.659113213       -37.764329263       -37.763297789        12.430421706
       177           88.500000         0.000137844        14.509180691       -37.764327403       -37.763297787        12.418742504
       178           89.000000         0.000153817        16.190484571       -37.764342943       -37.763297853        12.434006569
       179           89.500000         0.000186217        19.600910186       -37.764374847       -37.763297984        12.404704990
       180           90.000000         0.000233048        24.530247370       -37.764421040       -37.763298170        12.460989061
       181           90.500000         0.000291409        30.673152097       -37.764478546       -37.763298399        10.113382617
       182           91.000000         0.000357671        37.647773841       -37.764543680       -37.763298655        10.073781754
       183           91.500000         0.000427704        45.019387961       -37.764612278       -37.763298923        10.077475354
       184           92.000000         0.000497144        52.328495596       -37.764679969       -37.763299185        10.053553005
       185           92.500000         0.000561657        59.119035588       -37.764742449       -37.763299424        10.053081221
       186           93.000000         0.000617212        64.966620066       -37.764795743       -37.763299628        10.079126576
       187           93.500000         0.000660330        69.505133243       -37.764836450       -37.763299783        10.047391913
       188           94.000000         0.000688284        72.447527527       -37.764861929       -37.763299881         7.776521188
       189           94.500000         0.000699243        73.601105267       -37.764870439       -37.763299922         7.898723762
       190           95.000000         0.000692383        72.878999720       -37.764861222       -37.763299900         7.798740949
       191           95.500000         0.000667893        70.301267934       -37.764834519       -37.763299817        10.100954213
       192           96.000000         0.000626952        65.991864305       -37.764791546       -37.763299682         7.723354249
       193           96.500000         0.000571665        60.172398079       -37.764734417       -37.763299501        10.083649772
       194           97.000000         0.000504937        53.148724817       -37.764666036       -37.763299280        10.082986393
       195           97.500000         0.000430330        45.295752325       -37.764589955       -37.763299029        10.125566432
       196           98.000000         0.000351879        37.038202316       -37.764510202       -37.763298759        10.069336136
       197           98.500000         0.000273895        28.829675836       -37.764431087       -37.763298486        10.101144155
       198           99.000000         0.000200741        21.129610427       -37.764356982       -37.763298226        10.086360677
       199           99.500000         0.000136592        14.377396975       -37.764292070       -37.763297993        10.069263474
       200          100.000000         0.000085182         8.966090119       -37.764240091       -37.763297805        10.102012079
