10
 i =    20000, time =    10000.000, E =     -1188.5754798152
Nd -3.0817 -1.7244 -0.2543 
O -0.9931 -1.7244 0.9878 
O -3.0817 0.3642 0.9878 
O -5.1702 -1.7244 0.9878 
O -3.0817 -3.8130 0.9878 
O -1.6048 -3.2012 -1.4964 
O -4.5585 -3.2012 -1.4964 
O -4.5585 -0.2475 -1.4964 
O -1.6048 -0.2475 -1.4964 
O -3.0817 -1.7244 3.0764
10
 i =    20001, time =    10000.500, E =     -1188.5754798152
Nd -3.0817 -1.7244 -0.2543
O -0.9931 -1.7244 0.9878
O -3.0817 0.3642 0.9878
O -5.1702 -1.7244 0.9878
O -3.0817 -3.8130 0.9878
O -1.6048 -3.2012 -1.4964
O -4.5585 -3.2012 -1.4964
O -4.5585 -0.2475 -1.4964
O -1.6048 -0.2475 -1.4964
O -3.0817 -1.7244 3.0764
