 DBCSR| CPU Multiplication driver                                           XSMM
 DBCSR| Multrec recursion limit                                              512
 DBCSR| Multiplication stack size                                           1000
 DBCSR| Maximum elements for images                                    UNLIMITED
 DBCSR| Multiplicative factor virtual images                                   1
 DBCSR| Use multiplication densification                                       T
 DBCSR| Multiplication size stacks                                             3
 DBCSR| Use memory pool for CPU allocation                                     F
 DBCSR| Number of 3D layers                                               SINGLE
 DBCSR| Use MPI memory allocation                                              F
 DBCSR| Use RMA algorithm                                                      F
 DBCSR| Use Communication thread                                               T
 DBCSR| Communication thread load                                             87
 DBCSR| MPI: My node id                                                        0
 DBCSR| MPI: Number of nodes                                                  24
 DBCSR| OMP: Current number of threads                                         1
 DBCSR| OMP: Max number of threads                                             1
 DBCSR| Split modifier for TAS multiplication algorithm                  1.0E+00


  **** **** ******  **  PROGRAM STARTED AT               2021-10-27 12:45:03.211
 ***** ** ***  *** **   PROGRAM STARTED ON                                node10
 **    ****   ******    PROGRAM STARTED BY                               lujunbo
 ***** **    ** ** **   PROGRAM PROCESS ID                                224832
  **** **  *******  **  PROGRAM STARTED IN /home/lujunbo/WORK/deepmd/c2h6/mtd/tr
                                           ain_4_sys/cp2k_md/sys_4/data/task_100
                                           7

 CP2K| version string:                                          CP2K version 8.2
 CP2K| source code revision number:                                  git:310b7ab
 CP2K| cp2kflags: omp libint fftw3 libxc elpa parallel mpi3 scalapack xsmm plume
 CP2K|            d2 spglib mkl libvori libbqb
 CP2K| is freely available from                            https://www.cp2k.org/
 CP2K| Program compiled at                          Tue Jun  1 15:18:23 CST 2021
 CP2K| Program compiled on                                                   mgr
 CP2K| Program compiled for                                                local
 CP2K| Data directory path                       /home/lujunbo/bin/cp2k-8.2/data
 CP2K| Input file name                                                 input.inp

 GLOBAL| Force Environment number                                              1
 GLOBAL| Basis set file name            /home/lujunbo/bin/cp2k-8.2/data/BASIS_MO
 GLOBAL| Potential file name            /home/lujunbo/bin/cp2k-8.2/data/POTENTIA
 GLOBAL| MM Potential file name                                     MM_POTENTIAL
 GLOBAL| Coordinate file name                                      __STD_INPUT__
 GLOBAL| Method name                                                        CP2K
 GLOBAL| Project name                                                       cp2k
 GLOBAL| Run type                                                   ENERGY_FORCE
 GLOBAL| FFT library                                                       FFTW3
 GLOBAL| Diagonalization library                                            ELPA
 GLOBAL| Minimum number of eigenvectors for ELPA usage                        16
 GLOBAL| Orthonormality check for eigenvectors                          DISABLED
 GLOBAL| Matrix multiplication library                                    SCALAP
 GLOBAL| All-to-all communication in single precision                          F
 GLOBAL| FFTs using library dependent lengths                                  F
 GLOBAL| Grid backend                                                       AUTO
 GLOBAL| Global print level                                                  LOW
 GLOBAL| MPI I/O enabled                                                       T
 GLOBAL| Total number of message passing processes                            24
 GLOBAL| Number of threads for this process                                    1
 GLOBAL| This output is from process                                           0
 GLOBAL| CPU model name             Intel(R) Xeon(R) Platinum 9242 CPU @ 2.30GHz
 GLOBAL| CPUID                                                              1003

 MEMORY| system memory details [Kb]
 MEMORY|                        rank 0           min           max       average
 MEMORY| MemTotal            394609400     394609400     394609400     394609400
 MEMORY| MemFree             296422080     296422080     296422080     296422080
 MEMORY| Buffers                178092        178092        178092        178092
 MEMORY| Cached               62480624      62480624      62480624      62480624
 MEMORY| Slab                  1277136       1277136       1277136       1277136
 MEMORY| SReclaimable           586376        586376        586376        586376
 MEMORY| MemLikelyFree       359667172     359667172     359667172     359667172


 GENERATE|  Preliminary Number of Bonds generated:                             0
 GENERATE|  Achieved consistency in connectivity generation.

 *******************************************************************************
 *******************************************************************************
 **                                                                           **
 **     #####                         ##              ##                      **
 **    ##   ##            ##          ##              ##                      **
 **   ##     ##                       ##            ######                    **
 **   ##     ##  ##   ##  ##   #####  ##  ##   ####   ##    #####    #####    **
 **   ##     ##  ##   ##  ##  ##      ## ##   ##      ##   ##   ##  ##   ##   **
 **   ##  ## ##  ##   ##  ##  ##      ####     ###    ##   ######   ######    **
 **    ##  ###   ##   ##  ##  ##      ## ##      ##   ##   ##       ##        **
 **     #######   #####   ##   #####  ##  ##  ####    ##    #####   ##        **
 **           ##                                                    ##        **
 **                                                                           **
 **                                                ... make the atoms dance   **
 **                                                                           **
 **            Copyright (C) by CP2K developers group (2000-2021)             **
 **                      J. Chem. Phys. 152, 194103 (2020)                    **
 **                                                                           **
 *******************************************************************************


 TOTAL NUMBERS AND MAXIMUM NUMBERS

  Total number of            - Atomic kinds:                                   2
                             - Atoms:                                          8
                             - Shell sets:                                     8
                             - Shells:                                        28
                             - Primitive Cartesian functions:                 40
                             - Cartesian basis functions:                     58
                             - Spherical basis functions:                     56

  Maximum angular momentum of- Orbital basis functions:                        2
                             - Local part of the GTH pseudopotential:          2
                             - Non-local part of the GTH pseudopotential:      0


 SCF PARAMETERS         Density guess:                                   RESTART
                        --------------------------------------------------------
                        max_scf:                                             100
                        max_scf_history:                                       0
                        max_diis:                                              4
                        --------------------------------------------------------
                        eps_scf:                                        1.00E-06
                        eps_scf_history:                                0.00E+00
                        eps_diis:                                       1.00E-01
                        eps_eigval:                                     1.00E-05
                        --------------------------------------------------------
                        level_shift [a.u.]:                                 0.00
                        --------------------------------------------------------
                        Outer loop SCF in use 
                        No variables optimised in outer loop
                        eps_scf                                         1.00E-06
                        max_scf                                                6
                        No outer loop optimization
                        step_size                                       5.00E-01

 Number of electrons:                                                         14
 Number of occupied orbitals:                                                  7
 Number of molecular orbitals:                                                 7

 Number of orbital functions:                                                 56
 Number of independent orbital functions:                                     56

 Extrapolation method: initial_guess

 *** WARNING in qs_initial_guess.F:309 :: User requested to restart the    ***
 *** wavefunction from the file named: cp2k-RESTART.wfn. This file does    ***
 *** not exist. Please check the existence of the file or change properly  ***
 *** the value of the keyword WFN_RESTART_FILE_NAME. Calculation continues ***
 *** using ATOMIC GUESS.                                                   ***



 SCF WAVEFUNCTION OPTIMIZATION

  ----------------------------------- OT ---------------------------------------
  Minimizer      : CG                  : conjugate gradient
  Preconditioner : FULL_ALL            : diagonalization, state selective
  Precond_solver : DEFAULT
  Line search    : 2PNT                : 2 energies, one gradient
  stepsize       :    0.15000000                  energy_gap     :    0.08000000
  eps_taylor     :   0.10000E-15                  max_taylor     :             4
  ----------------------------------- OT ---------------------------------------

  Step     Update method      Time    Convergence         Total energy    Change
  ------------------------------------------------------------------------------
     1 OT CG       0.15E+00    0.2     0.20882125       -14.0487420283 -1.40E+01
     2 OT LS       0.79E-01    0.1                      -14.1660754811
     3 OT CG       0.79E-01    0.3     0.08042276       -14.7762210588 -7.27E-01
     4 OT LS       0.10E+00    0.1                      -14.8975935072
     5 OT CG       0.10E+00    0.2     0.05267658       -14.9038889893 -1.28E-01
     6 OT LS       0.74E-01    0.1                      -14.9384562393
     7 OT CG       0.74E-01    0.2     0.01512413       -14.9437378903 -3.98E-02
     8 OT LS       0.13E+00    0.1                      -14.9485395192
     9 OT CG       0.13E+00    0.3     0.00620949       -14.9496976238 -5.96E-03
    10 OT LS       0.11E+00    0.1                      -14.9504469830
    11 OT CG       0.11E+00    0.2     0.00242488       -14.9504982298 -8.01E-04
    12 OT LS       0.74E-01    0.1                      -14.9505664116
    13 OT CG       0.74E-01    0.2     0.00136087       -14.9505829070 -8.47E-05
    14 OT LS       0.90E-01    0.1                      -14.9506144632
    15 OT CG       0.90E-01    0.2     0.00050554       -14.9506155494 -3.26E-05
    16 OT LS       0.13E+00    0.1                      -14.9506214888
    17 OT CG       0.13E+00    0.2     0.00016930       -14.9506221610 -6.61E-06
    18 OT LS       0.13E+00    0.1                      -14.9506229093
    19 OT CG       0.13E+00    0.2     0.00009181       -14.9506229093 -7.48E-07
    20 OT LS       0.71E-01    0.1                      -14.9506229364
    21 OT CG       0.71E-01    0.2     0.00004403       -14.9506230266 -1.17E-07
    22 OT LS       0.87E-01    0.1                      -14.9506230585
    23 OT CG       0.87E-01    0.2     0.00001985       -14.9506230596 -3.31E-08
    24 OT LS       0.11E+00    0.1                      -14.9506230676
    25 OT CG       0.11E+00    0.2     0.00000783       -14.9506230679 -8.30E-09
    26 OT LS       0.12E+00    0.1                      -14.9506230694
    27 OT CG       0.12E+00    0.2     0.00000303       -14.9506230694 -1.45E-09
    28 OT LS       0.10E+00    0.1                      -14.9506230696
    29 OT CG       0.10E+00    0.2     0.00000171       -14.9506230696 -1.83E-10
    30 OT LS       0.71E-01    0.1                      -14.9506230696
    31 OT CG       0.71E-01    0.2     0.00000080       -14.9506230696 -4.07E-11

  *** SCF run converged in    31 steps ***


  Electronic density on regular grids:        -14.0000000000        0.0000000000
  Core density on regular grids:               13.9999999989       -0.0000000011
  Total charge density on r-space grids:       -0.0000000010
  Total charge density g-space grids:          -0.0000000010

  Overlap energy of the core charge distribution:               0.00000137370577
  Self energy of the core charge distribution:                -35.13285960674677
  Core Hamiltonian energy:                                     11.36432475906540
  Hartree energy:                                              14.46270931199099
  Exchange-correlation energy:                                 -5.64479890763323

  Total energy:                                               -14.95062306961784

  outer SCF iter =    1 RMS gradient =   0.80E-06 energy =        -14.9506230696
  outer SCF loop converged in   1 iterations or   31 steps


 ENERGY| Total FORCE_EVAL ( QS ) energy [a.u.]:              -14.950623069629410

 -------------------------------------------------------------------------------
 -                                                                             -
 -                                DBCSR STATISTICS                             -
 -                                                                             -
 -------------------------------------------------------------------------------
 COUNTER                                    TOTAL       BLAS       SMM       ACC
 flops     7 x     7 x     7               115248       0.0%    100.0%      0.0%
 flops     5 x    13 x     7               180180       0.0%    100.0%      0.0%
 flops    13 x     5 x     7               180180       0.0%    100.0%      0.0%
 flops     7 x     7 x    13               203840       0.0%    100.0%      0.0%
 flops    13 x    13 x     7               234234       0.0%    100.0%      0.0%
 flops     7 x     7 x     5               235200       0.0%    100.0%      0.0%
 flops     5 x     5 x     7               242550       0.0%    100.0%      0.0%
 flops    26 x     7 x     7               282828       0.0%    100.0%      0.0%
 flops    26 x     7 x    13               321776       0.0%    100.0%      0.0%
 flops    10 x     7 x     7               326340       0.0%    100.0%      0.0%
 flops    26 x     7 x     5               371280       0.0%    100.0%      0.0%
 flops    10 x     7 x    13               371280       0.0%    100.0%      0.0%
 flops    10 x     7 x     5               428400       0.0%    100.0%      0.0%
 flops    13 x     7 x    13               529984       0.0%    100.0%      0.0%
 flops    13 x     7 x     5               611520       0.0%    100.0%      0.0%
 flops     5 x     7 x    13               611520       0.0%    100.0%      0.0%
 flops     5 x     7 x     5               705600       0.0%    100.0%      0.0%
 flops inhomo. stacks                           0       0.0%      0.0%      0.0%
 flops total                         5.951960E+06       0.0%    100.0%      0.0%
 flops max/rank                      2.905910E+06       0.0%    100.0%      0.0%
 matmuls inhomo. stacks                         0       0.0%      0.0%      0.0%
 matmuls total                               7112       0.0%    100.0%      0.0%
 number of processed stacks                  4924       0.0%    100.0%      0.0%
 average stack size                                     0.0       1.4       0.0
 marketing flops                     6.569132E+06
 -------------------------------------------------------------------------------
 # multiplications                            483
 max memory usage/rank             179.494912E+06
 # max total images/rank                        3
 # max 3D layers                                1
 # MPI messages exchanged                  220248
 MPI messages size (bytes):
  total size                        17.369128E+06
  min size                           0.000000E+00
  max size                           2.704000E+03
  average size                      78.861687E+00
 MPI breakdown and total messages size (bytes):
             size <=      128              193417                        0
       128 < size <=     8192               26831                 17369128
      8192 < size <=    32768                   0                        0
     32768 < size <=   131072                   0                        0
    131072 < size <=  4194304                   0                        0
   4194304 < size <= 16777216                   0                        0
  16777216 < size                               0                        0
 -------------------------------------------------------------------------------

 *** WARNING in dbcsr_mm.F:294 :: Using a non-square number of MPI ranks ***
 *** might lead to poor performance. Used ranks: 24 Suggested: 25 49     ***

 -------------------------------------------------------------------------------
 -                                                                             -
 -                      DBCSR MESSAGE PASSING PERFORMANCE                      -
 -                                                                             -
 -------------------------------------------------------------------------------
 ROUTINE             CALLS      AVE VOLUME [Bytes]
 MP_Bcast               18                     12.
 MP_Allreduce         2484                      8.
 MP_Alltoall          1976                   1382.
 MP_ISend            20282                    163.
 MP_IRecv            20282                    109.
 -------------------------------------------------------------------------------

 -------------------------------------------------------------------------------
 -                                                                             -
 -                                GRID STATISTICS                              -
 -                                                                             -
 -------------------------------------------------------------------------------
 LP    KERNEL             BACKEND                              COUNT     PERCENT
 2     collocate ortho    REF                                  21504      38.13%
 3     collocate ortho    REF                                  12064      21.39%
 2     integrate ortho    REF                                  10752      19.07%
 3     integrate ortho    REF                                   6032      10.70%
 4     collocate ortho    REF                                   3008       5.33%
 4     integrate ortho    REF                                   1504       2.67%
 5     integrate ortho    REF                                    672       1.19%
 6     integrate ortho    REF                                    377       0.67%
 0     collocate general  REF                                    192       0.34%
 3     integrate general  REF                                    192       0.34%
 7     integrate ortho    REF                                     94       0.17%
 -------------------------------------------------------------------------------

 MEMORY| Estimated peak process memory [MiB]                                 172

 -------------------------------------------------------------------------------
 -                                                                             -
 -                         MESSAGE PASSING PERFORMANCE                         -
 -                                                                             -
 -------------------------------------------------------------------------------

 ROUTINE             CALLS      AVE VOLUME [Bytes]
 MP_Group                4
 MP_Bcast              593                 620103.
 MP_Allreduce         1800                    187.
 MP_Sync                72
 MP_Alltoall           472                2980729.
 MP_ISendRecv         3381                  53808.
 MP_Wait              5115
 MP_comm_split          34
 MP_ISend             1530                 171661.
 MP_IRecv             1530                 171406.
 MP_Recv                 6                    896.
 -------------------------------------------------------------------------------


 -------------------------------------------------------------------------------
 -                                                                             -
 -                           R E F E R E N C E S                               -
 -                                                                             -
 -------------------------------------------------------------------------------
 
 CP2K version 8.2, the CP2K developers group (2021).
 CP2K is freely available from https://www.cp2k.org/ .

 Kuehne,Thomas D.; Iannuzzi,Marcella; Del Ben,Mauro;
 Rybkin,Vladimir V.; Seewald,Patrick; Stein,Frederick; Laino,Teodoro;
 Khaliullin,Rustam Z.; Schuett,Ole; Schiffmann,Florian; Golze,Dorothea;
 Wilhelm,Jan; Chulkov,Sergey; Bani-Hashemian,Mohammad Hossein;
 Weber,Valery; Borstnik,Urban; Taillefumier,Mathieu;
 Jakobovits,Alice Shoshana; Lazzaro,Alfio; Pabst,Hans; Mueller,Tiziano;
 Schade,Robert; Guidon,Manuel; Andermatt,Samuel; Holmberg,Nico;
 Schenter,Gregory K.; Hehn,Anna; Bussy,Augustin; Belleflamme,Fabian;
 Tabacchi,Gloria; Gloess,Andreas; Lass,Michael; Bethune,Iain;
 Mundy,Christopher J.; Plessl,Christian; Watkins,Matt;
 VandeVondele,Joost; Krack,Matthias; Hutter,Juerg. 
 The Journal of Chemical Physics, 152 (19), (2020). 
 CP2K: An electronic structure and molecular dynamics software package -
 Quickstep: Efficient and accurate electronic structure calculations.
 https://doi.org/10.1063/5.0007045

 Schuett, Ole; Messmer, Peter; Hutter, Juerg; VandeVondele, Joost. 
 Electronic Structure Calculations on Graphics Processing Units, John
 Wiley & Sons, Ltd, 173-190 (2016). 
 GPU-Accelerated Sparse Matrix-Matrix Multiplication for
 Linear Scaling Density Functional Theory.
 https://doi.org/10.1002/9781118670712.ch8

 Heinecke, A; Henry, G; Hutchinson, M; Pabst, H. 
 Proceedings of Intl. Supercomputing Conference, 981-991 (2016). 
 LIBXSMM: Accelerating Small Matrix Multiplications
 by Runtime Code Generation.
 https://doi.org/10.1109/SC.2016.83

 Borstnik, U; VandeVondele, J; Weber, V; Hutter, J. 
 PARALLEL COMPUTING, 40 (5-6), 47-58 (2014). 
 Sparse matrix multiplication: The distributed block-compressed sparse
 row library.
 https://doi.org/10.1016/j.parco.2014.03.012

 Hutter, J; Iannuzzi, M; Schiffmann, F; VandeVondele, J. 
 WIREs Comput Mol Sci., 4 (1), 15-25 (2014). 
 CP2K: atomistic simulations of condensed matter systems.
 https://doi.org/10.1002/wcms.1159

 Marek, A; Blum, V; Johanni, R; Havu, V; Lang, B; Auckenthaler, T;
 Heinecke, A; Bungartz, H; Lederer, H. 
 Journal of Physics: Condensed Matter, 26 (21), (2014). 
 The ELPA library: scalable parallel eigenvalue solutions for
 electronic structure
 theory and computational science.
 https://doi.org/10.1088/0953-8984/26/21/213201

 VandeVondele, J; Hutter, J. 
 JOURNAL OF CHEMICAL PHYSICS, 127 (11), 114105 (2007). 
 Gaussian basis sets for accurate calculations on molecular systems in
 gas and condensed phases.
 https://doi.org/10.1063/1.2770708

 Krack, M. 
 THEORETICAL CHEMISTRY ACCOUNTS, 114 (1-3), 145-152 (2005). 
 Pseudopotentials for H to Kr optimized for gradient-corrected
 exchange-correlation functionals.
 https://doi.org/10.1007/s00214-005-0655-y

 VandeVondele, J; Krack, M; Mohamed, F; Parrinello, M; Chassaing, T;
 Hutter, J. COMPUTER PHYSICS COMMUNICATIONS, 167 (2), 103-128 (2005). 
 QUICKSTEP: Fast and accurate density functional calculations using a
 mixed Gaussian and plane waves approach.
 https://doi.org/10.1016/j.cpc.2004.12.014

 Frigo, M; Johnson, SG. 
 PROCEEDINGS OF THE IEEE, 93 (2), 216-231 (2005). 
 The design and implementation of FFTW3.
 https://doi.org/10.1109/JPROC.2004.840301

 VandeVondele, J; Hutter, J. 
 JOURNAL OF CHEMICAL PHYSICS, 118 (10), 4365-4369 (2003). 
 An efficient orbital transformation method for electronic structure
 calculations.
 https://doi.org/10.1063/1.1543154

 Hartwigsen, C; Goedecker, S; Hutter, J. 
 PHYSICAL REVIEW B, 58 (7), 3641-3662 (1998). 
 Relativistic separable dual-space Gaussian pseudopotentials from H to Rn.
 https://doi.org/10.1103/PhysRevB.58.3641

 Lippert, G; Hutter, J; Parrinello, M. 
 MOLECULAR PHYSICS, 92 (3), 477-487 (1997). 
 A hybrid Gaussian and plane wave density functional scheme.
 https://doi.org/10.1080/002689797170220

 Perdew, JP; Burke, K; Ernzerhof, M. 
 PHYSICAL REVIEW LETTERS, 77 (18), 3865-3868 (1996). 
 Generalized gradient approximation made simple.
 https://doi.org/10.1103/PhysRevLett.77.3865

 Goedecker, S; Teter, M; Hutter, J. 
 PHYSICAL REVIEW B, 54 (3), 1703-1710 (1996). 
 Separable dual-space Gaussian pseudopotentials.
 https://doi.org/10.1103/PhysRevB.54.1703


 -------------------------------------------------------------------------------
 -                                                                             -
 -                                T I M I N G                                  -
 -                                                                             -
 -------------------------------------------------------------------------------
 SUBROUTINE                       CALLS  ASD         SELF TIME        TOTAL TIME
                                MAXIMUM       AVERAGE  MAXIMUM  AVERAGE  MAXIMUM
 CP2K                                 1  1.0    0.006    0.013    6.032    6.033
 qs_forces                            1  2.0    0.000    0.000    5.923    5.924
 qs_energies                          1  3.0    0.000    0.000    5.729    5.729
 scf_env_do_scf                       1  4.0    0.000    0.000    5.612    5.612
 scf_env_do_scf_inner_loop           31  5.0    0.001    0.006    5.399    5.399
 rebuild_ks_matrix                   32  6.9    0.000    0.000    3.783    3.784
 qs_ks_build_kohn_sham_matrix        32  7.9    0.004    0.004    3.782    3.784
 qs_ks_update_qs_env                 32  6.0    0.000    0.000    3.598    3.599
 pw_transfer                        474 10.4    0.021    0.023    2.728    2.878
 qs_vxc_create                       32  8.9    0.000    0.000    2.834    2.839
 fft_wrap_pw1pw2                    410 11.4    0.003    0.004    2.689    2.838
 fft_wrap_pw1pw2_200                263 12.7    0.151    0.160    2.565    2.716
 fft3d_ps                           410 13.4    1.223    1.413    2.204    2.354
 xc_rho_set_and_dset_create          32 10.9    0.014    0.015    1.875    2.125
 xc_vxc_pw_create                    17  9.8    0.031    0.035    1.830    1.835
 qs_rho_update_rho                   32  6.0    0.000    0.000    1.492    1.494
 calculate_rho_elec                  32  7.0    0.018    0.020    1.491    1.494
 density_rs2pw                       32  8.0    0.001    0.001    1.242    1.297
 xc_functional_eval                  32 11.9    0.000    0.000    0.837    1.076
 pbe_lda_eval                        32 12.9    0.837    1.076    0.837    1.076
 xc_exc_calc                         15 10.0    0.007    0.008    1.003    1.003
 mp_alltoall_z22v                   410 15.4    0.791    0.970    0.791    0.970
 rs_pw_transfer                     198  9.9    0.002    0.002    0.848    0.881
 yz_to_x                            197 13.7    0.056    0.066    0.452    0.627
 sum_up_and_integrate                17  8.8    0.004    0.005    0.623    0.624
 integrate_v_rspace                  17  9.8    0.000    0.000    0.620    0.621
 x_to_yz                            213 15.1    0.128    0.149    0.523    0.613
 qs_scf_new_mos                      31  6.0    0.000    0.000    0.540    0.541
 qs_scf_loop_do_ot                   31  7.0    0.000    0.000    0.540    0.541
 ot_scf_mini                         31  8.0    0.000    0.000    0.511    0.512
 potential_pw2rs                     17 10.8    0.001    0.001    0.470    0.471
 rs_pw_transfer_RS2PW_200            33  9.9    0.171    0.185    0.420    0.453
 dbcsr_multiply_generic             483 10.9    0.013    0.015    0.439    0.444
 mp_sum_d                           978  7.3    0.217    0.363    0.217    0.363
 grid_collocate_task_list            32  8.0    0.189    0.361    0.189    0.361
 mp_waitany                        1530 11.9    0.279    0.315    0.279    0.315
 ot_mini                             31  9.0    0.000    0.000    0.239    0.239
 mp_waitall_1                     30633 14.7    0.184    0.214    0.184    0.214
 init_scf_loop                        1  5.0    0.000    0.000    0.212    0.212
 qs_ot_get_derivative                16 10.0    0.000    0.000    0.204    0.204
 qs_ot_get_p                         32  8.9    0.000    0.000    0.198    0.199
 qs_ks_update_qs_env_forces           1  3.0    0.000    0.000    0.188    0.188
 multiply_cannon                    483 11.9    0.025    0.027    0.171    0.183
 make_m2s                           966 11.9    0.010    0.012    0.161    0.176
 pw_scatter_p                       213 14.1    0.167    0.172    0.167    0.172
 rs_pw_transfer_PW2RS_200            18 12.6    0.095    0.100    0.166    0.170
 pw_gather_p                        197 12.7    0.155    0.164    0.155    0.164
 mp_alltoall_d11v                   524 12.9    0.140    0.160    0.140    0.160
 qs_ot_get_derivative_diag           15 11.0    0.000    0.000    0.156    0.157
 qs_ot_p2m_diag                      31 10.0    0.001    0.001    0.142    0.144
 grid_integrate_task_list            17 10.8    0.033    0.138    0.033    0.138
 rs_gather_matrices                  17 10.8    0.000    0.000    0.116    0.135
 -------------------------------------------------------------------------------

 The number of warnings for this run is : 2
 
 -------------------------------------------------------------------------------
  **** **** ******  **  PROGRAM ENDED AT                 2021-10-27 12:45:09.734
 ***** ** ***  *** **   PROGRAM RAN ON                                    node10
 **    ****   ******    PROGRAM RAN BY                                   lujunbo
 ***** **    ** ** **   PROGRAM PROCESS ID                                224832
  **** **  *******  **  PROGRAM STOPPED IN /home/lujunbo/WORK/deepmd/c2h6/mtd/tr
                                           ain_4_sys/cp2k_md/sys_4/data/task_100
                                           7
