 DBCSR| CPU Multiplication driver                                           XSMM
 DBCSR| Multrec recursion limit                                              512
 DBCSR| Multiplication stack size                                           1000
 DBCSR| Maximum elements for images                                    UNLIMITED
 DBCSR| Multiplicative factor virtual images                                   1
 DBCSR| Use multiplication densification                                       T
 DBCSR| Multiplication size stacks                                             3
 DBCSR| Use memory pool for CPU allocation                                     F
 DBCSR| Number of 3D layers                                               SINGLE
 DBCSR| Use MPI memory allocation                                              F
 DBCSR| Use RMA algorithm                                                      F
 DBCSR| Use Communication thread                                               T
 DBCSR| Communication thread load                                             87
 DBCSR| MPI: My node id                                                        0
 DBCSR| MPI: Number of nodes                                                  24
 DBCSR| OMP: Current number of threads                                         1
 DBCSR| OMP: Max number of threads                                             1
 DBCSR| Split modifier for TAS multiplication algorithm                  1.0E+00


  **** **** ******  **  PROGRAM STARTED AT               2021-10-27 14:45:40.595
 ***** ** ***  *** **   PROGRAM STARTED ON                                node10
 **    ****   ******    PROGRAM STARTED BY                               lujunbo
 ***** **    ** ** **   PROGRAM PROCESS ID                                309702
  **** **  *******  **  PROGRAM STARTED IN /home/lujunbo/WORK/deepmd/c2h6/mtd/tr
                                           ain_4_sys/cp2k_md/sys_4/data/task_210
                                           4

 CP2K| version string:                                          CP2K version 8.2
 CP2K| source code revision number:                                  git:310b7ab
 CP2K| cp2kflags: omp libint fftw3 libxc elpa parallel mpi3 scalapack xsmm plume
 CP2K|            d2 spglib mkl libvori libbqb
 CP2K| is freely available from                            https://www.cp2k.org/
 CP2K| Program compiled at                          Tue Jun  1 15:18:23 CST 2021
 CP2K| Program compiled on                                                   mgr
 CP2K| Program compiled for                                                local
 CP2K| Data directory path                       /home/lujunbo/bin/cp2k-8.2/data
 CP2K| Input file name                                                 input.inp

 GLOBAL| Force Environment number                                              1
 GLOBAL| Basis set file name            /home/lujunbo/bin/cp2k-8.2/data/BASIS_MO
 GLOBAL| Potential file name            /home/lujunbo/bin/cp2k-8.2/data/POTENTIA
 GLOBAL| MM Potential file name                                     MM_POTENTIAL
 GLOBAL| Coordinate file name                                      __STD_INPUT__
 GLOBAL| Method name                                                        CP2K
 GLOBAL| Project name                                                       cp2k
 GLOBAL| Run type                                                   ENERGY_FORCE
 GLOBAL| FFT library                                                       FFTW3
 GLOBAL| Diagonalization library                                            ELPA
 GLOBAL| Minimum number of eigenvectors for ELPA usage                        16
 GLOBAL| Orthonormality check for eigenvectors                          DISABLED
 GLOBAL| Matrix multiplication library                                    SCALAP
 GLOBAL| All-to-all communication in single precision                          F
 GLOBAL| FFTs using library dependent lengths                                  F
 GLOBAL| Grid backend                                                       AUTO
 GLOBAL| Global print level                                                  LOW
 GLOBAL| MPI I/O enabled                                                       T
 GLOBAL| Total number of message passing processes                            24
 GLOBAL| Number of threads for this process                                    1
 GLOBAL| This output is from process                                           0
 GLOBAL| CPU model name             Intel(R) Xeon(R) Platinum 9242 CPU @ 2.30GHz
 GLOBAL| CPUID                                                              1003

 MEMORY| system memory details [Kb]
 MEMORY|                        rank 0           min           max       average
 MEMORY| MemTotal            394609400     394609400     394609400     394609400
 MEMORY| MemFree             299062964     299062964     299062964     299062964
 MEMORY| Buffers                178956        178956        178956        178956
 MEMORY| Cached               62897828      62897828      62897828      62897828
 MEMORY| Slab                  1282312       1282312       1282312       1282312
 MEMORY| SReclaimable           595312        595312        595312        595312
 MEMORY| MemLikelyFree       362735060     362735060     362735060     362735060


 GENERATE|  Preliminary Number of Bonds generated:                             0
 GENERATE|  Achieved consistency in connectivity generation.

 *******************************************************************************
 *******************************************************************************
 **                                                                           **
 **     #####                         ##              ##                      **
 **    ##   ##            ##          ##              ##                      **
 **   ##     ##                       ##            ######                    **
 **   ##     ##  ##   ##  ##   #####  ##  ##   ####   ##    #####    #####    **
 **   ##     ##  ##   ##  ##  ##      ## ##   ##      ##   ##   ##  ##   ##   **
 **   ##  ## ##  ##   ##  ##  ##      ####     ###    ##   ######   ######    **
 **    ##  ###   ##   ##  ##  ##      ## ##      ##   ##   ##       ##        **
 **     #######   #####   ##   #####  ##  ##  ####    ##    #####   ##        **
 **           ##                                                    ##        **
 **                                                                           **
 **                                                ... make the atoms dance   **
 **                                                                           **
 **            Copyright (C) by CP2K developers group (2000-2021)             **
 **                      J. Chem. Phys. 152, 194103 (2020)                    **
 **                                                                           **
 *******************************************************************************


 TOTAL NUMBERS AND MAXIMUM NUMBERS

  Total number of            - Atomic kinds:                                   2
                             - Atoms:                                          8
                             - Shell sets:                                     8
                             - Shells:                                        28
                             - Primitive Cartesian functions:                 40
                             - Cartesian basis functions:                     58
                             - Spherical basis functions:                     56

  Maximum angular momentum of- Orbital basis functions:                        2
                             - Local part of the GTH pseudopotential:          2
                             - Non-local part of the GTH pseudopotential:      0


 SCF PARAMETERS         Density guess:                                   RESTART
                        --------------------------------------------------------
                        max_scf:                                             100
                        max_scf_history:                                       0
                        max_diis:                                              4
                        --------------------------------------------------------
                        eps_scf:                                        1.00E-06
                        eps_scf_history:                                0.00E+00
                        eps_diis:                                       1.00E-01
                        eps_eigval:                                     1.00E-05
                        --------------------------------------------------------
                        level_shift [a.u.]:                                 0.00
                        --------------------------------------------------------
                        Outer loop SCF in use 
                        No variables optimised in outer loop
                        eps_scf                                         1.00E-06
                        max_scf                                                6
                        No outer loop optimization
                        step_size                                       5.00E-01

 Number of electrons:                                                         14
 Number of occupied orbitals:                                                  7
 Number of molecular orbitals:                                                 7

 Number of orbital functions:                                                 56
 Number of independent orbital functions:                                     56

 Extrapolation method: initial_guess

 *** WARNING in qs_initial_guess.F:309 :: User requested to restart the    ***
 *** wavefunction from the file named: cp2k-RESTART.wfn. This file does    ***
 *** not exist. Please check the existence of the file or change properly  ***
 *** the value of the keyword WFN_RESTART_FILE_NAME. Calculation continues ***
 *** using ATOMIC GUESS.                                                   ***



 SCF WAVEFUNCTION OPTIMIZATION

  ----------------------------------- OT ---------------------------------------
  Minimizer      : CG                  : conjugate gradient
  Preconditioner : FULL_ALL            : diagonalization, state selective
  Precond_solver : DEFAULT
  Line search    : 2PNT                : 2 energies, one gradient
  stepsize       :    0.15000000                  energy_gap     :    0.08000000
  eps_taylor     :   0.10000E-15                  max_taylor     :             4
  ----------------------------------- OT ---------------------------------------

  Step     Update method      Time    Convergence         Total energy    Change
  ------------------------------------------------------------------------------
     1 OT CG       0.15E+00    0.2     0.19467689       -14.0911854208 -1.41E+01
     2 OT LS       0.88E-01    0.1                      -14.4110327425
     3 OT CG       0.88E-01    0.2     0.07624941       -14.7878758757 -6.97E-01
     4 OT LS       0.13E+00    0.1                      -14.9132897325
     5 OT CG       0.13E+00    0.2     0.03331031       -14.9259926789 -1.38E-01
     6 OT LS       0.95E-01    0.1                      -14.9444597834
     7 OT CG       0.95E-01    0.2     0.01100152       -14.9465942145 -2.06E-02
     8 OT LS       0.14E+00    0.1                      -14.9495569759
     9 OT CG       0.14E+00    0.2     0.00396233       -14.9498836002 -3.29E-03
    10 OT LS       0.76E-01    0.1                      -14.9499549796
    11 OT CG       0.76E-01    0.2     0.00177813       -14.9501156804 -2.32E-04
    12 OT LS       0.13E+00    0.1                      -14.9501816091
    13 OT CG       0.13E+00    0.2     0.00049905       -14.9501946348 -7.90E-05
    14 OT LS       0.13E+00    0.1                      -14.9502011254
    15 OT CG       0.13E+00    0.2     0.00018685       -14.9502011376 -6.50E-06
    16 OT LS       0.13E+00    0.1                      -14.9502019976
    17 OT CG       0.13E+00    0.2     0.00010529       -14.9502020003 -8.63E-07
    18 OT LS       0.79E-01    0.1                      -14.9502021131
    19 OT CG       0.79E-01    0.2     0.00003538       -14.9502021728 -1.73E-07
    20 OT LS       0.14E+00    0.1                      -14.9502022008
    21 OT CG       0.14E+00    0.2     0.00001323       -14.9502022072 -3.44E-08
    22 OT LS       0.12E+00    0.1                      -14.9502022115
    23 OT CG       0.12E+00    0.2     0.00000469       -14.9502022115 -4.28E-09
    24 OT LS       0.12E+00    0.1                      -14.9502022120
    25 OT CG       0.12E+00    0.2     0.00000270       -14.9502022120 -5.05E-10
    26 OT LS       0.82E-01    0.1                      -14.9502022121
    27 OT CG       0.82E-01    0.2     0.00000084       -14.9502022121 -1.17E-10

  *** SCF run converged in    27 steps ***


  Electronic density on regular grids:        -14.0000000000        0.0000000000
  Core density on regular grids:               13.9999999989       -0.0000000011
  Total charge density on r-space grids:       -0.0000000010
  Total charge density g-space grids:          -0.0000000010

  Overlap energy of the core charge distribution:               0.00000173085228
  Self energy of the core charge distribution:                -35.13285960674677
  Core Hamiltonian energy:                                     11.40989958719689
  Hartree energy:                                              14.43211836255399
  Exchange-correlation energy:                                 -5.65936228600057

  Total energy:                                               -14.95020221214417

  outer SCF iter =    1 RMS gradient =   0.84E-06 energy =        -14.9502022121
  outer SCF loop converged in   1 iterations or   27 steps


 ENERGY| Total FORCE_EVAL ( QS ) energy [a.u.]:              -14.950202212161168

 -------------------------------------------------------------------------------
 -                                                                             -
 -                                DBCSR STATISTICS                             -
 -                                                                             -
 -------------------------------------------------------------------------------
 COUNTER                                    TOTAL       BLAS       SMM       ACC
 flops     7 x     7 x     7               100156       0.0%    100.0%      0.0%
 flops     5 x    13 x     7               158340       0.0%    100.0%      0.0%
 flops    13 x     5 x     7               158340       0.0%    100.0%      0.0%
 flops     7 x     7 x    13               178360       0.0%    100.0%      0.0%
 flops     7 x     7 x     5               205800       0.0%    100.0%      0.0%
 flops    13 x    13 x     7               205842       0.0%    100.0%      0.0%
 flops     5 x     5 x     7               213150       0.0%    100.0%      0.0%
 flops    26 x     7 x     7               247156       0.0%    100.0%      0.0%
 flops    26 x     7 x    13               283920       0.0%    100.0%      0.0%
 flops    10 x     7 x     7               285180       0.0%    100.0%      0.0%
 flops    26 x     7 x     5               327600       0.0%    100.0%      0.0%
 flops    10 x     7 x    13               327600       0.0%    100.0%      0.0%
 flops    10 x     7 x     5               378000       0.0%    100.0%      0.0%
 flops    13 x     7 x    13               473200       0.0%    100.0%      0.0%
 flops    13 x     7 x     5               546000       0.0%    100.0%      0.0%
 flops     5 x     7 x    13               546000       0.0%    100.0%      0.0%
 flops     5 x     7 x     5               630000       0.0%    100.0%      0.0%
 flops inhomo. stacks                           0       0.0%      0.0%      0.0%
 flops total                         5.264644E+06       0.0%    100.0%      0.0%
 flops max/rank                      2.568034E+06       0.0%    100.0%      0.0%
 matmuls inhomo. stacks                         0       0.0%      0.0%      0.0%
 matmuls total                               6298       0.0%    100.0%      0.0%
 number of processed stacks                  4350       0.0%    100.0%      0.0%
 average stack size                                     0.0       1.4       0.0
 marketing flops                     5.807672E+06
 -------------------------------------------------------------------------------
 # multiplications                            423
 max memory usage/rank             177.303552E+06
 # max total images/rank                        3
 # max 3D layers                                1
 # MPI messages exchanged                  192888
 MPI messages size (bytes):
  total size                        15.364440E+06
  min size                           0.000000E+00
  max size                           2.704000E+03
  average size                      79.654724E+00
 MPI breakdown and total messages size (bytes):
             size <=      128              169187                        0
       128 < size <=     8192               23701                 15364440
      8192 < size <=    32768                   0                        0
     32768 < size <=   131072                   0                        0
    131072 < size <=  4194304                   0                        0
   4194304 < size <= 16777216                   0                        0
  16777216 < size                               0                        0
 -------------------------------------------------------------------------------

 *** WARNING in dbcsr_mm.F:294 :: Using a non-square number of MPI ranks ***
 *** might lead to poor performance. Used ranks: 24 Suggested: 25 49     ***

 -------------------------------------------------------------------------------
 -                                                                             -
 -                      DBCSR MESSAGE PASSING PERFORMANCE                      -
 -                                                                             -
 -------------------------------------------------------------------------------
 ROUTINE             CALLS      AVE VOLUME [Bytes]
 MP_Bcast               18                     12.
 MP_Allreduce         2180                      8.
 MP_Alltoall          1766                   1398.
 MP_ISend            17762                    164.
 MP_IRecv            17762                    110.
 -------------------------------------------------------------------------------

 -------------------------------------------------------------------------------
 -                                                                             -
 -                                GRID STATISTICS                              -
 -                                                                             -
 -------------------------------------------------------------------------------
 LP    KERNEL             BACKEND                              COUNT     PERCENT
 2     collocate ortho    REF                                  18816      38.02%
 3     collocate ortho    REF                                  10528      21.27%
 2     integrate ortho    REF                                   9408      19.01%
 3     integrate ortho    REF                                   5264      10.64%
 4     collocate ortho    REF                                   2632       5.32%
 4     integrate ortho    REF                                   1316       2.66%
 5     integrate ortho    REF                                    672       1.36%
 6     integrate ortho    REF                                    376       0.76%
 0     collocate general  REF                                    192       0.39%
 3     integrate general  REF                                    192       0.39%
 7     integrate ortho    REF                                     94       0.19%
 -------------------------------------------------------------------------------

 MEMORY| Estimated peak process memory [MiB]                                 170

 -------------------------------------------------------------------------------
 -                                                                             -
 -                         MESSAGE PASSING PERFORMANCE                         -
 -                                                                             -
 -------------------------------------------------------------------------------

 ROUTINE             CALLS      AVE VOLUME [Bytes]
 MP_Group                4
 MP_Bcast              485                 758111.
 MP_Allreduce         1520                    214.
 MP_Sync                64
 MP_Alltoall           416                2970244.
 MP_ISendRecv         2967                  53808.
 MP_Wait              4497
 MP_comm_split          30
 MP_ISend             1350                 171659.
 MP_IRecv             1350                 171408.
 MP_Recv                 6                    896.
 -------------------------------------------------------------------------------


 -------------------------------------------------------------------------------
 -                                                                             -
 -                           R E F E R E N C E S                               -
 -                                                                             -
 -------------------------------------------------------------------------------
 
 CP2K version 8.2, the CP2K developers group (2021).
 CP2K is freely available from https://www.cp2k.org/ .

 Kuehne,Thomas D.; Iannuzzi,Marcella; Del Ben,Mauro;
 Rybkin,Vladimir V.; Seewald,Patrick; Stein,Frederick; Laino,Teodoro;
 Khaliullin,Rustam Z.; Schuett,Ole; Schiffmann,Florian; Golze,Dorothea;
 Wilhelm,Jan; Chulkov,Sergey; Bani-Hashemian,Mohammad Hossein;
 Weber,Valery; Borstnik,Urban; Taillefumier,Mathieu;
 Jakobovits,Alice Shoshana; Lazzaro,Alfio; Pabst,Hans; Mueller,Tiziano;
 Schade,Robert; Guidon,Manuel; Andermatt,Samuel; Holmberg,Nico;
 Schenter,Gregory K.; Hehn,Anna; Bussy,Augustin; Belleflamme,Fabian;
 Tabacchi,Gloria; Gloess,Andreas; Lass,Michael; Bethune,Iain;
 Mundy,Christopher J.; Plessl,Christian; Watkins,Matt;
 VandeVondele,Joost; Krack,Matthias; Hutter,Juerg. 
 The Journal of Chemical Physics, 152 (19), (2020). 
 CP2K: An electronic structure and molecular dynamics software package -
 Quickstep: Efficient and accurate electronic structure calculations.
 https://doi.org/10.1063/5.0007045

 Schuett, Ole; Messmer, Peter; Hutter, Juerg; VandeVondele, Joost. 
 Electronic Structure Calculations on Graphics Processing Units, John
 Wiley & Sons, Ltd, 173-190 (2016). 
 GPU-Accelerated Sparse Matrix-Matrix Multiplication for
 Linear Scaling Density Functional Theory.
 https://doi.org/10.1002/9781118670712.ch8

 Heinecke, A; Henry, G; Hutchinson, M; Pabst, H. 
 Proceedings of Intl. Supercomputing Conference, 981-991 (2016). 
 LIBXSMM: Accelerating Small Matrix Multiplications
 by Runtime Code Generation.
 https://doi.org/10.1109/SC.2016.83

 Borstnik, U; VandeVondele, J; Weber, V; Hutter, J. 
 PARALLEL COMPUTING, 40 (5-6), 47-58 (2014). 
 Sparse matrix multiplication: The distributed block-compressed sparse
 row library.
 https://doi.org/10.1016/j.parco.2014.03.012

 Hutter, J; Iannuzzi, M; Schiffmann, F; VandeVondele, J. 
 WIREs Comput Mol Sci., 4 (1), 15-25 (2014). 
 CP2K: atomistic simulations of condensed matter systems.
 https://doi.org/10.1002/wcms.1159

 Marek, A; Blum, V; Johanni, R; Havu, V; Lang, B; Auckenthaler, T;
 Heinecke, A; Bungartz, H; Lederer, H. 
 Journal of Physics: Condensed Matter, 26 (21), (2014). 
 The ELPA library: scalable parallel eigenvalue solutions for
 electronic structure
 theory and computational science.
 https://doi.org/10.1088/0953-8984/26/21/213201

 VandeVondele, J; Hutter, J. 
 JOURNAL OF CHEMICAL PHYSICS, 127 (11), 114105 (2007). 
 Gaussian basis sets for accurate calculations on molecular systems in
 gas and condensed phases.
 https://doi.org/10.1063/1.2770708

 Krack, M. 
 THEORETICAL CHEMISTRY ACCOUNTS, 114 (1-3), 145-152 (2005). 
 Pseudopotentials for H to Kr optimized for gradient-corrected
 exchange-correlation functionals.
 https://doi.org/10.1007/s00214-005-0655-y

 VandeVondele, J; Krack, M; Mohamed, F; Parrinello, M; Chassaing, T;
 Hutter, J. COMPUTER PHYSICS COMMUNICATIONS, 167 (2), 103-128 (2005). 
 QUICKSTEP: Fast and accurate density functional calculations using a
 mixed Gaussian and plane waves approach.
 https://doi.org/10.1016/j.cpc.2004.12.014

 Frigo, M; Johnson, SG. 
 PROCEEDINGS OF THE IEEE, 93 (2), 216-231 (2005). 
 The design and implementation of FFTW3.
 https://doi.org/10.1109/JPROC.2004.840301

 VandeVondele, J; Hutter, J. 
 JOURNAL OF CHEMICAL PHYSICS, 118 (10), 4365-4369 (2003). 
 An efficient orbital transformation method for electronic structure
 calculations.
 https://doi.org/10.1063/1.1543154

 Hartwigsen, C; Goedecker, S; Hutter, J. 
 PHYSICAL REVIEW B, 58 (7), 3641-3662 (1998). 
 Relativistic separable dual-space Gaussian pseudopotentials from H to Rn.
 https://doi.org/10.1103/PhysRevB.58.3641

 Lippert, G; Hutter, J; Parrinello, M. 
 MOLECULAR PHYSICS, 92 (3), 477-487 (1997). 
 A hybrid Gaussian and plane wave density functional scheme.
 https://doi.org/10.1080/002689797170220

 Perdew, JP; Burke, K; Ernzerhof, M. 
 PHYSICAL REVIEW LETTERS, 77 (18), 3865-3868 (1996). 
 Generalized gradient approximation made simple.
 https://doi.org/10.1103/PhysRevLett.77.3865

 Goedecker, S; Teter, M; Hutter, J. 
 PHYSICAL REVIEW B, 54 (3), 1703-1710 (1996). 
 Separable dual-space Gaussian pseudopotentials.
 https://doi.org/10.1103/PhysRevB.54.1703


 -------------------------------------------------------------------------------
 -                                                                             -
 -                                T I M I N G                                  -
 -                                                                             -
 -------------------------------------------------------------------------------
 SUBROUTINE                       CALLS  ASD         SELF TIME        TOTAL TIME
                                MAXIMUM       AVERAGE  MAXIMUM  AVERAGE  MAXIMUM
 CP2K                                 1  1.0    0.005    0.011    4.343    4.344
 qs_forces                            1  2.0    0.000    0.000    4.242    4.242
 qs_energies                          1  3.0    0.000    0.000    4.080    4.080
 scf_env_do_scf                       1  4.0    0.000    0.000    3.979    3.979
 scf_env_do_scf_inner_loop           27  5.0    0.001    0.002    3.821    3.822
 rebuild_ks_matrix                   28  6.9    0.000    0.000    2.697    2.699
 qs_ks_build_kohn_sham_matrix        28  7.9    0.003    0.003    2.697    2.699
 qs_ks_update_qs_env                 28  6.0    0.000    0.000    2.542    2.544
 qs_vxc_create                       28  8.9    0.000    0.000    2.053    2.057
 pw_transfer                        416 10.4    0.016    0.017    1.867    1.987
 fft_wrap_pw1pw2                    360 11.4    0.002    0.002    1.839    1.959
 fft_wrap_pw1pw2_200                231 12.7    0.097    0.106    1.749    1.869
 fft3d_ps                           360 13.4    0.839    0.958    1.499    1.618
 xc_rho_set_and_dset_create          28 10.9    0.010    0.011    1.391    1.590
 xc_vxc_pw_create                    15  9.8    0.025    0.029    1.294    1.297
 qs_rho_update_rho                   28  6.0    0.000    0.000    1.044    1.044
 calculate_rho_elec                  28  7.0    0.016    0.017    1.044    1.044
 density_rs2pw                       28  8.0    0.001    0.001    0.870    0.915
 xc_functional_eval                  28 11.9    0.000    0.000    0.675    0.870
 pbe_lda_eval                        28 12.9    0.675    0.870    0.675    0.870
 xc_exc_calc                         13 10.0    0.005    0.006    0.759    0.760
 mp_alltoall_z22v                   360 15.4    0.543    0.710    0.543    0.710
 rs_pw_transfer                     174  9.9    0.002    0.002    0.594    0.622
 yz_to_x                            173 13.7    0.035    0.042    0.316    0.464
 sum_up_and_integrate                15  8.8    0.002    0.002    0.429    0.429
 integrate_v_rspace                  15  9.8    0.000    0.000    0.427    0.427
 qs_scf_new_mos                      27  6.0    0.000    0.000    0.407    0.408
 qs_scf_loop_do_ot                   27  7.0    0.000    0.000    0.407    0.408
 x_to_yz                            187 15.1    0.078    0.092    0.340    0.395
 ot_scf_mini                         27  8.0    0.000    0.000    0.381    0.382
 dbcsr_multiply_generic             423 10.8    0.010    0.011    0.341    0.345
 potential_pw2rs                     15 10.8    0.001    0.001    0.316    0.317
 rs_pw_transfer_RS2PW_200            29  9.9    0.117    0.124    0.287    0.314
 mp_sum_d                           886  6.8    0.160    0.280    0.160    0.280
 grid_collocate_task_list            28  8.0    0.130    0.263    0.130    0.263
 mp_waitany                        1350 11.8    0.194    0.228    0.194    0.228
 ot_mini                             27  9.0    0.000    0.000    0.171    0.171
 init_scf_loop                        1  5.0    0.000    0.000    0.157    0.157
 qs_ks_update_qs_env_forces           1  3.0    0.000    0.000    0.156    0.156
 mp_waitall_1                     26835 14.7    0.140    0.153    0.140    0.153
 qs_ot_get_p                         28  8.9    0.000    0.000    0.149    0.150
 qs_ot_get_derivative                14 10.0    0.000    0.000    0.143    0.143
 multiply_cannon                    423 11.8    0.020    0.022    0.129    0.138
 make_m2s                           846 11.8    0.008    0.010    0.128    0.135
 pw_scatter_p                       187 14.1    0.126    0.129    0.126    0.129
 rs_pw_transfer_PW2RS_200            16 12.5    0.061    0.064    0.116    0.125
 mp_alltoall_d11v                   476 12.8    0.096    0.111    0.096    0.111
 pw_gather_p                        173 12.7    0.108    0.111    0.108    0.111
 grid_integrate_task_list            15 10.8    0.026    0.109    0.026    0.109
 qs_ot_p2m_diag                      27 10.0    0.000    0.001    0.104    0.106
 qs_ot_get_derivative_diag           13 11.0    0.000    0.000    0.104    0.105
 rs_gather_matrices                  15 10.8    0.000    0.000    0.085    0.100
 make_images                        846 12.8    0.013    0.016    0.091    0.094
 multiply_cannon_loop               423 12.8    0.016    0.019    0.073    0.088
 -------------------------------------------------------------------------------

 The number of warnings for this run is : 2
 
 -------------------------------------------------------------------------------
  **** **** ******  **  PROGRAM ENDED AT                 2021-10-27 14:45:45.752
 ***** ** ***  *** **   PROGRAM RAN ON                                    node10
 **    ****   ******    PROGRAM RAN BY                                   lujunbo
 ***** **    ** ** **   PROGRAM PROCESS ID                                309702
  **** **  *******  **  PROGRAM STOPPED IN /home/lujunbo/WORK/deepmd/c2h6/mtd/tr
                                           ain_4_sys/cp2k_md/sys_4/data/task_210
                                           4
