 DBCSR| CPU Multiplication driver                                           XSMM
 DBCSR| Multrec recursion limit                                              512
 DBCSR| Multiplication stack size                                           1000
 DBCSR| Maximum elements for images                                    UNLIMITED
 DBCSR| Multiplicative factor virtual images                                   1
 DBCSR| Use multiplication densification                                       T
 DBCSR| Multiplication size stacks                                             3
 DBCSR| Use memory pool for CPU allocation                                     F
 DBCSR| Number of 3D layers                                               SINGLE
 DBCSR| Use MPI memory allocation                                              F
 DBCSR| Use RMA algorithm                                                      F
 DBCSR| Use Communication thread                                               T
 DBCSR| Communication thread load                                             87
 DBCSR| MPI: My node id                                                        0
 DBCSR| MPI: Number of nodes                                                  24
 DBCSR| OMP: Current number of threads                                         1
 DBCSR| OMP: Max number of threads                                             1
 DBCSR| Split modifier for TAS multiplication algorithm                  1.0E+00


  **** **** ******  **  PROGRAM STARTED AT               2021-10-25 09:48:49.640
 ***** ** ***  *** **   PROGRAM STARTED ON                                 node6
 **    ****   ******    PROGRAM STARTED BY                               lujunbo
 ***** **    ** ** **   PROGRAM PROCESS ID                                 29072
  **** **  *******  **  PROGRAM STARTED IN /home/lujunbo/WORK/deepmd/c2h6/mtd/tr
                                           ain_4_sys/cp2k_md/sys_3

 CP2K| version string:                                          CP2K version 8.2
 CP2K| source code revision number:                                  git:310b7ab
 CP2K| cp2kflags: omp libint fftw3 libxc elpa parallel mpi3 scalapack xsmm plume
 CP2K|            d2 spglib mkl libvori libbqb
 CP2K| is freely available from                            https://www.cp2k.org/
 CP2K| Program compiled at                          Tue Jun  1 15:18:23 CST 2021
 CP2K| Program compiled on                                                   mgr
 CP2K| Program compiled for                                                local
 CP2K| Data directory path                       /home/lujunbo/bin/cp2k-8.2/data
 CP2K| Input file name                                             cp2k-aimd.inp

 GLOBAL| Force Environment number                                              1
 GLOBAL| Basis set file name            /home/lujunbo/bin/cp2k-8.2/data/BASIS_MO
 GLOBAL| Potential file name            /home/lujunbo/bin/cp2k-8.2/data/POTENTIA
 GLOBAL| MM Potential file name                                     MM_POTENTIAL
 GLOBAL| Coordinate file name                                           init.xyz
 GLOBAL| Method name                                                        CP2K
 GLOBAL| Project name                                                       test
 GLOBAL| Run type                                                             MD
 GLOBAL| FFT library                                                       FFTW3
 GLOBAL| Diagonalization library                                            ELPA
 GLOBAL| Minimum number of eigenvectors for ELPA usage                        16
 GLOBAL| Orthonormality check for eigenvectors                          DISABLED
 GLOBAL| Matrix multiplication library                                    SCALAP
 GLOBAL| All-to-all communication in single precision                          F
 GLOBAL| FFTs using library dependent lengths                                  F
 GLOBAL| Grid backend                                                       AUTO
 GLOBAL| Global print level                                                  LOW
 GLOBAL| MPI I/O enabled                                                       T
 GLOBAL| Total number of message passing processes                            24
 GLOBAL| Number of threads for this process                                    1
 GLOBAL| This output is from process                                           0
 GLOBAL| CPU model name             Intel(R) Xeon(R) Platinum 9242 CPU @ 2.30GHz
 GLOBAL| CPUID                                                              1003

 MEMORY| system memory details [Kb]
 MEMORY|                        rank 0           min           max       average
 MEMORY| MemTotal            394609408     394609408     394609408     394609408
 MEMORY| MemFree             212859784     212858604     212859784     212859546
 MEMORY| Buffers                167632        167632        167632        167632
 MEMORY| Cached              139387684     139387632     139387684     139387674
 MEMORY| Slab                  1752796       1752796       1752796       1752796
 MEMORY| SReclaimable          1082416       1082416       1082416       1082416
 MEMORY| MemLikelyFree       353497516     353496284     353497516     353497269


 GENERATE|  Preliminary Number of Bonds generated:                             0
 GENERATE|  Achieved consistency in connectivity generation.

 *******************************************************************************
 *******************************************************************************
 **                                                                           **
 **     #####                         ##              ##                      **
 **    ##   ##            ##          ##              ##                      **
 **   ##     ##                       ##            ######                    **
 **   ##     ##  ##   ##  ##   #####  ##  ##   ####   ##    #####    #####    **
 **   ##     ##  ##   ##  ##  ##      ## ##   ##      ##   ##   ##  ##   ##   **
 **   ##  ## ##  ##   ##  ##  ##      ####     ###    ##   ######   ######    **
 **    ##  ###   ##   ##  ##  ##      ## ##      ##   ##   ##       ##        **
 **     #######   #####   ##   #####  ##  ##  ####    ##    #####   ##        **
 **           ##                                                    ##        **
 **                                                                           **
 **                                                ... make the atoms dance   **
 **                                                                           **
 **            Copyright (C) by CP2K developers group (2000-2021)             **
 **                      J. Chem. Phys. 152, 194103 (2020)                    **
 **                                                                           **
 *******************************************************************************


 TOTAL NUMBERS AND MAXIMUM NUMBERS

  Total number of            - Atomic kinds:                                   2
                             - Atoms:                                          8
                             - Shell sets:                                     8
                             - Shells:                                        28
                             - Primitive Cartesian functions:                 40
                             - Cartesian basis functions:                     58
                             - Spherical basis functions:                     56

  Maximum angular momentum of- Orbital basis functions:                        2
                             - Local part of the GTH pseudopotential:          2
                             - Non-local part of the GTH pseudopotential:      0


 SCF PARAMETERS         Density guess:                                   RESTART
                        --------------------------------------------------------
                        max_scf:                                             100
                        max_scf_history:                                       0
                        max_diis:                                              4
                        --------------------------------------------------------
                        eps_scf:                                        1.00E-06
                        eps_scf_history:                                0.00E+00
                        eps_diis:                                       1.00E-01
                        eps_eigval:                                     1.00E-05
                        --------------------------------------------------------
                        level_shift [a.u.]:                                 0.00
                        --------------------------------------------------------
                        Outer loop SCF in use 
                        No variables optimised in outer loop
                        eps_scf                                         1.00E-06
                        max_scf                                                6
                        No outer loop optimization
                        step_size                                       5.00E-01

 MD_PAR| Molecular dynamics protocol (MD input parameters)
 MD_PAR| Ensemble type                                                       NVT
 MD_PAR| Number of time steps                                               1000
 MD_PAR| Time step [fs]                                                 0.500000
 MD_PAR| Temperature [K]                                               50.000000
 MD_PAR| Temperature tolerance [K]                                      0.000000
 MD_PAR| Print MD information every                                    1 step(s)
 MD_PAR| File type   Print frequency [steps]                          File names
 MD_PAR| Coordinates          1                                   test-pos-1.xyz
 MD_PAR| Velocities           1                                   test-vel-1.xyz
 MD_PAR| Energies             1                                      test-1.ener
 MD_PAR| Dump                 5                                   test-1.restart

 ROT| Rotational analysis information
 ROT| Principal axes and moments of inertia [a.u.]
 ROT|                           1                   2                   3
 ROT| Eigenvalues      4.29812259115E+04   1.61122547201E+05   1.61124470207E+05
 ROT|      x              0.999999999993      0.000001235653      0.000003446288
 ROT|      y             -0.000002485506      0.920285340369      0.391247865549
 ROT|      z             -0.000002688121     -0.391247865555      0.920285340366
 ROT| Number of rotovibrational vectors                                        6

 DOF| Calculation of degrees of freedom
 DOF| Number of atoms                                                          8
 DOF| Number of intramolecular constraints                                     0
 DOF| Number of intermolecular constraints                                     0
 DOF| Invariants (translations + rotations)                                    3
 DOF| Degrees of freedom                                                      21

 DOF| Restraints information
 DOF| Number of intramolecular restraints                                      0
 DOF| Number of intermolecular restraints                                      0

 THERMOSTAT| Thermostat information for PARTICLES
 THERMOSTAT| Type of thermostat                               Nose-Hoover-Chains
 THERMOSTAT| Nose-Hoover-Chain length                                          3
 THERMOSTAT| Nose-Hoover-Chain time constant [fs]                      50.000000
 THERMOSTAT| Order of Yoshida integrator                                       3
 THERMOSTAT| Number of multiple time steps                                     2
 THERMOSTAT| Initial potential energy                         0.000000000000E+00
 THERMOSTAT| Initial kinetic energy                           0.791703835822E-04
 THERMOSTAT| End of thermostat information for PARTICLES

 MD_VEL| Velocities initialization
 MD_VEL| Initial temperature [K]                                       50.000000
 MD_VEL| COM velocity             0.0000000000     0.0000000000    -0.0000000000

 Number of electrons:                                                         14
 Number of occupied orbitals:                                                  7
 Number of molecular orbitals:                                                 7

 Number of orbital functions:                                                 56
 Number of independent orbital functions:                                     56

 Extrapolation method: initial_guess

 *** WARNING in qs_initial_guess.F:309 :: User requested to restart the    ***
 *** wavefunction from the file named: ./cp2k-RESTART.wfn. This file does  ***
 *** not exist. Please check the existence of the file or change properly  ***
 *** the value of the keyword WFN_RESTART_FILE_NAME. Calculation continues ***
 *** using ATOMIC GUESS.                                                   ***



 SCF WAVEFUNCTION OPTIMIZATION

  ----------------------------------- OT ---------------------------------------
  Minimizer      : CG                  : conjugate gradient
  Preconditioner : FULL_ALL            : diagonalization, state selective
  Precond_solver : DEFAULT
  Line search    : 2PNT                : 2 energies, one gradient
  stepsize       :    0.15000000                  energy_gap     :    0.08000000
  eps_taylor     :   0.10000E-15                  max_taylor     :             4
  ----------------------------------- OT ---------------------------------------

  Step     Update method      Time    Convergence         Total energy    Change
  ------------------------------------------------------------------------------
     1 OT CG       0.15E+00    1.0     0.23533608       -13.7367430461 -1.37E+01
     2 OT LS       0.80E-01    0.3                      -13.9410249536
     3 OT CG       0.80E-01    0.7     0.10578068       -14.7329958006 -9.96E-01
     4 OT LS       0.82E-01    0.3                      -14.8874516570
     5 OT CG       0.82E-01    0.5     0.06960050       -14.8874402657 -1.54E-01
     6 OT LS       0.49E-01    0.3                      -14.9138334871
     7 OT CG       0.49E-01    0.6     0.02440770       -14.9343279877 -4.69E-02
     8 OT LS       0.10E+00    0.3                      -14.9430576640
     9 OT CG       0.10E+00    0.6     0.01352287       -14.9462651046 -1.19E-02
    10 OT LS       0.11E+00    0.3                      -14.9501138039
    11 OT CG       0.11E+00    0.5     0.00636544       -14.9501240067 -3.86E-03
    12 OT LS       0.57E-01    0.3                      -14.9502179727
    13 OT CG       0.57E-01    0.7     0.00279863       -14.9505792530 -4.55E-04
    14 OT LS       0.92E-01    0.4                      -14.9507003841
    15 OT CG       0.92E-01    0.6     0.00113362       -14.9507203974 -1.41E-04
    16 OT LS       0.90E-01    0.3                      -14.9507430488
    17 OT CG       0.90E-01    0.4     0.00063091       -14.9507430602 -2.27E-05
    18 OT LS       0.86E-01    0.2                      -14.9507497605
    19 OT CG       0.86E-01    0.4     0.00034209       -14.9507497745 -6.71E-06
    20 OT LS       0.73E-01    0.3                      -14.9507513952
    21 OT CG       0.73E-01    0.5     0.00016579       -14.9507514488 -1.67E-06
    22 OT LS       0.86E-01    0.3                      -14.9507518999
    23 OT CG       0.86E-01    0.5     0.00007123       -14.9507519099 -4.61E-07
    24 OT LS       0.99E-01    0.3                      -14.9507520066
    25 OT CG       0.99E-01    0.6     0.00003423       -14.9507520085 -9.86E-08
    26 OT LS       0.66E-01    0.3                      -14.9507520200
    27 OT CG       0.66E-01    0.5     0.00001935       -14.9507520237 -1.52E-08
    28 OT LS       0.10E+00    0.2                      -14.9507520303
    29 OT CG       0.10E+00    0.4     0.00000837       -14.9507520312 -7.45E-09
    30 OT LS       0.92E-01    0.2                      -14.9507520324
    31 OT CG       0.92E-01    0.5     0.00000358       -14.9507520324 -1.27E-09
    32 OT LS       0.69E-01    0.3                      -14.9507520326
    33 OT CG       0.69E-01    0.4     0.00000207       -14.9507520326 -1.72E-10
    34 OT LS       0.92E-01    0.2                      -14.9507520327
    35 OT CG       0.92E-01    0.5     0.00000091       -14.9507520327 -7.72E-11

  *** SCF run converged in    35 steps ***


  Electronic density on regular grids:        -14.0000000000        0.0000000000
  Core density on regular grids:               13.9999999989       -0.0000000011
  Total charge density on r-space grids:       -0.0000000010
  Total charge density g-space grids:          -0.0000000010

  Overlap energy of the core charge distribution:               0.00000091436037
  Self energy of the core charge distribution:                -35.13285960674677
  Core Hamiltonian energy:                                     11.33798628085298
  Hartree energy:                                              14.47892771470070
  Exchange-correlation energy:                                 -5.63480733585004

  Total energy:                                               -14.95075203268276

  outer SCF iter =    1 RMS gradient =   0.91E-06 energy =        -14.9507520327
  outer SCF loop converged in   1 iterations or   35 steps


 ENERGY| Total FORCE_EVAL ( QS ) energy [a.u.]:              -14.950752032697897

 MD_INI| MD initialization
 MD_INI| Potential energy [hartree]                          -0.149507520327E+02
 MD_INI| Kinetic energy [hartree]                             0.166257805523E-02
 MD_INI| Temperature [K]                                               50.000000
 MD_INI| Cell volume [bohr^3]                                 6.748334583090E+03
 MD_INI| Cell volume [ang^3]                                  1.000000000000E+03
 MD_INI| Cell lengths [bohr]      1.88972613E+01  1.88972613E+01  1.88972613E+01
 MD_INI| Cell lengths [ang]       1.00000000E+01  1.00000000E+01  1.00000000E+01
 MD_INI| Cell angles [deg]        9.00000000E+01  9.00000000E+01  9.00000000E+01

 Number of electrons:                                                         14
 Number of occupied orbitals:                                                  7
 Number of molecular orbitals:                                                 7

 Number of orbital functions:                                                 56
 Number of independent orbital functions:                                     56

 Extrapolation method: ASPC


 SCF WAVEFUNCTION OPTIMIZATION

  ----------------------------------- OT ---------------------------------------
  Minimizer      : CG                  : conjugate gradient
  Preconditioner : FULL_ALL            : diagonalization, state selective
  Precond_solver : DEFAULT
  Line search    : 2PNT                : 2 energies, one gradient
  stepsize       :    0.15000000                  energy_gap     :    0.08000000
  eps_taylor     :   0.10000E-15                  max_taylor     :             4
  ----------------------------------- OT ---------------------------------------

  Step     Update method      Time    Convergence         Total energy    Change
  ------------------------------------------------------------------------------
     1 OT CG       0.15E+00    0.4     0.00052086       -14.9506032026 -1.50E+01
     2 OT LS       0.20E+00    0.3                      -14.9506130261
     3 OT CG       0.20E+00    0.4     0.00022088       -14.9506135831 -1.04E-05
     4 OT LS       0.13E+00    0.3                      -14.9506145202
     5 OT CG       0.13E+00    0.5     0.00002103       -14.9506148293 -1.25E-06
     6 OT LS       0.17E+00    0.2                      -14.9506148434
     7 OT CG       0.17E+00    0.4     0.00000503       -14.9506148443 -1.50E-08
     8 OT LS       0.15E+00    0.2                      -14.9506148450
     9 OT CG       0.15E+00    0.6     0.00000157       -14.9506148450 -7.27E-10
    10 OT LS       0.14E+00    0.3                      -14.9506148451
    11 OT CG       0.14E+00    0.5     0.00000024       -14.9506148451 -6.95E-11

  *** SCF run converged in    11 steps ***


  Electronic density on regular grids:        -14.0000000000        0.0000000000
  Core density on regular grids:               13.9999999989       -0.0000000011
  Total charge density on r-space grids:       -0.0000000010
  Total charge density g-space grids:          -0.0000000010

  Overlap energy of the core charge distribution:               0.00000093338936
  Self energy of the core charge distribution:                -35.13285960674677
  Core Hamiltonian energy:                                     11.34377463022647
  Hartree energy:                                              14.47506799693487
  Exchange-correlation energy:                                 -5.63659879887814

  Total energy:                                               -14.95061484507421

  outer SCF iter =    1 RMS gradient =   0.24E-06 energy =        -14.9506148451
  outer SCF loop converged in   1 iterations or   11 steps


 ENERGY| Total FORCE_EVAL ( QS ) energy [a.u.]:              -14.950614845076021

 MD| ***************************************************************************
 MD| Step number                                                               1
 MD| Time [fs]                                                          0.500000
 MD| Conserved quantity [hartree]                            -0.149490107300E+02
 MD| ---------------------------------------------------------------------------
 MD|                                          Instantaneous             Averages
 MD| CPU time per MD step [s]                     22.009298            22.009298
 MD| Energy drift per atom [K]          -0.175950645420E-01   0.000000000000E+00
 MD| Potential energy [hartree]         -0.149506148451E+02  -0.149506148451E+02
 MD| Kinetic energy [hartree]            0.151806220899E-02   0.151806220899E-02
 MD| Temperature [K]                              45.653863            45.653863
 MD| ***************************************************************************

 Number of electrons:                                                         14
 Number of occupied orbitals:                                                  7
 Number of molecular orbitals:                                                 7

 Number of orbital functions:                                                 56
 Number of independent orbital functions:                                     56

 Extrapolation method: ASPC


 SCF WAVEFUNCTION OPTIMIZATION

  ----------------------------------- OT ---------------------------------------
  Minimizer      : CG                  : conjugate gradient
  Preconditioner : FULL_ALL            : diagonalization, state selective
  Precond_solver : DEFAULT
  Line search    : 2PNT                : 2 energies, one gradient
  stepsize       :    0.15000000                  energy_gap     :    0.08000000
  eps_taylor     :   0.10000E-15                  max_taylor     :             4
  ----------------------------------- OT ---------------------------------------

  Step     Update method      Time    Convergence         Total energy    Change
  ------------------------------------------------------------------------------
     1 OT CG       0.15E+00    0.5     0.00022973       -14.9506268920 -1.50E+01
     2 OT LS       0.16E+00    0.2                      -14.9506284985
     3 OT CG       0.16E+00    0.4     0.00009608       -14.9506285005 -1.61E-06
     4 OT LS       0.15E+00    0.2                      -14.9506287761
     5 OT CG       0.15E+00    0.4     0.00001517       -14.9506287762 -2.76E-07
     6 OT LS       0.17E+00    0.2                      -14.9506287839
     7 OT CG       0.17E+00    0.5     0.00000210       -14.9506287841 -7.88E-09
     8 OT LS       0.21E+00    0.3                      -14.9506287842
     9 OT CG       0.21E+00    0.4     0.00000021       -14.9506287842 -1.82E-10

  *** SCF run converged in     9 steps ***


  Electronic density on regular grids:        -14.0000000000        0.0000000000
  Core density on regular grids:               13.9999999989       -0.0000000011
  Total charge density on r-space grids:       -0.0000000010
  Total charge density g-space grids:          -0.0000000010

  Overlap energy of the core charge distribution:               0.00000099593910
  Self energy of the core charge distribution:                -35.13285960674677
  Core Hamiltonian energy:                                     11.35697521261954
  Hartree energy:                                              14.46607861483708
  Exchange-correlation energy:                                 -5.64082400089113

  Total energy:                                               -14.95062878424218

  outer SCF iter =    1 RMS gradient =   0.21E-06 energy =        -14.9506287842
  outer SCF loop converged in   1 iterations or    9 steps


 ENERGY| Total FORCE_EVAL ( QS ) energy [a.u.]:              -14.950628784242735

 MD| ***************************************************************************
 MD| Step number                                                               2
 MD| Time [fs]                                                          1.000000
 MD| Conserved quantity [hartree]                            -0.149490139655E+02
 MD| ---------------------------------------------------------------------------
 MD|                                          Instantaneous             Averages
 MD| CPU time per MD step [s]                      3.659240            12.834269
 MD| Energy drift per atom [K]          -0.145306320926E+00  -0.726531604632E-01
 MD| Potential energy [hartree]         -0.149506287842E+02  -0.149506218147E+02
 MD| Kinetic energy [hartree]            0.152220162513E-02   0.152013191706E-02
 MD| Temperature [K]                              45.778351            45.716107
 MD| ***************************************************************************

 Number of electrons:                                                         14
 Number of occupied orbitals:                                                  7
 Number of molecular orbitals:                                                 7

 Number of orbital functions:                                                 56
 Number of independent orbital functions:                                     56

 Extrapolation method: ASPC


 SCF WAVEFUNCTION OPTIMIZATION

  ----------------------------------- OT ---------------------------------------
  Minimizer      : CG                  : conjugate gradient
  Preconditioner : FULL_ALL            : diagonalization, state selective
  Precond_solver : DEFAULT
  Line search    : 2PNT                : 2 energies, one gradient
  stepsize       :    0.15000000                  energy_gap     :    0.08000000
  eps_taylor     :   0.10000E-15                  max_taylor     :             4
  ----------------------------------- OT ---------------------------------------

  Step     Update method      Time    Convergence         Total energy    Change
  ------------------------------------------------------------------------------
     1 OT CG       0.15E+00    0.4     0.00009961       -14.9507435671 -1.50E+01
     2 OT LS       0.16E+00    0.3                      -14.9507438778
     3 OT CG       0.16E+00    0.4     0.00004194       -14.9507438791 -3.12E-07
     4 OT LS       0.15E+00    0.3                      -14.9507439303
     5 OT CG       0.15E+00    0.4     0.00000661       -14.9507439306 -5.15E-08
     6 OT LS       0.17E+00    0.3                      -14.9507439320
     7 OT CG       0.17E+00    0.4     0.00000100       -14.9507439321 -1.48E-09
     8 OT LS       0.18E+00    0.3                      -14.9507439321
     9 OT CG       0.18E+00    0.5     0.00000033       -14.9507439321 -3.53E-11

  *** SCF run converged in     9 steps ***


  Electronic density on regular grids:        -14.0000000000        0.0000000000
  Core density on regular grids:               13.9999999989       -0.0000000011
  Total charge density on r-space grids:       -0.0000000010
  Total charge density g-space grids:          -0.0000000010

  Overlap energy of the core charge distribution:               0.00000110359211
  Self energy of the core charge distribution:                -35.13285960674677
  Core Hamiltonian energy:                                     11.37682695683980
  Hartree energy:                                              14.45251323455217
  Exchange-correlation energy:                                 -5.64722562033998

  Total energy:                                               -14.95074393210267

  outer SCF iter =    1 RMS gradient =   0.33E-06 energy =        -14.9507439321
  outer SCF loop converged in   1 iterations or    9 steps


 ENERGY| Total FORCE_EVAL ( QS ) energy [a.u.]:              -14.950743932104810

 MD| ***************************************************************************
 MD| Step number                                                               3
 MD| Time [fs]                                                          1.500000
 MD| Conserved quantity [hartree]                            -0.149490188953E+02
 MD| ---------------------------------------------------------------------------
 MD|                                          Instantaneous             Averages
 MD| CPU time per MD step [s]                      3.878517             9.849018
 MD| Energy drift per atom [K]          -0.339893572100E+00  -0.161733297675E+00
 MD| Potential energy [hartree]         -0.149507439321E+02  -0.149506625205E+02
 MD| Kinetic energy [hartree]            0.162563864679E-02   0.155530082697E-02
 MD| Temperature [K]                              48.889093            46.773769
 MD| ***************************************************************************

 Number of electrons:                                                         14
 Number of occupied orbitals:                                                  7
 Number of molecular orbitals:                                                 7

 Number of orbital functions:                                                 56
 Number of independent orbital functions:                                     56

 Extrapolation method: ASPC


 SCF WAVEFUNCTION OPTIMIZATION

  ----------------------------------- OT ---------------------------------------
  Minimizer      : CG                  : conjugate gradient
  Preconditioner : FULL_ALL            : diagonalization, state selective
  Precond_solver : DEFAULT
  Line search    : 2PNT                : 2 energies, one gradient
  stepsize       :    0.15000000                  energy_gap     :    0.08000000
  eps_taylor     :   0.10000E-15                  max_taylor     :             4
  ----------------------------------- OT ---------------------------------------

  Step     Update method      Time    Convergence         Total energy    Change
  ------------------------------------------------------------------------------
     1 OT CG       0.15E+00    0.6     0.00006334       -14.9508842095 -1.50E+01
     2 OT LS       0.17E+00    0.2                      -14.9508843415
     3 OT CG       0.17E+00    0.5     0.00002678       -14.9508843434 -1.34E-07
     4 OT LS       0.14E+00    0.3                      -14.9508843629
     5 OT CG       0.14E+00    0.4     0.00000413       -14.9508843636 -2.02E-08
     6 OT LS       0.17E+00    0.3                      -14.9508843641
     7 OT CG       0.17E+00    0.4     0.00000068       -14.9508843642 -5.70E-10

  *** SCF run converged in     7 steps ***


  Electronic density on regular grids:        -14.0000000000        0.0000000000
  Core density on regular grids:               13.9999999989       -0.0000000011
  Total charge density on r-space grids:       -0.0000000010
  Total charge density g-space grids:          -0.0000000010

  Overlap energy of the core charge distribution:               0.00000125707501
  Self energy of the core charge distribution:                -35.13285960674677
  Core Hamiltonian energy:                                     11.40205466281784
  Hartree energy:                                              14.43529279067287
  Exchange-correlation energy:                                 -5.65537346797779

  Total energy:                                               -14.95088436415884

  outer SCF iter =    1 RMS gradient =   0.68E-06 energy =        -14.9508843642
  outer SCF loop converged in   1 iterations or    7 steps


 ENERGY| Total FORCE_EVAL ( QS ) energy [a.u.]:              -14.950884364173920

 MD| ***************************************************************************
 MD| Step number                                                               4
 MD| Time [fs]                                                          2.000000
 MD| Conserved quantity [hartree]                            -0.149490239334E+02
 MD| ---------------------------------------------------------------------------
 MD|                                          Instantaneous             Averages
 MD| CPU time per MD step [s]                      3.350155             8.224302
 MD| Energy drift per atom [K]          -0.538755560870E+00  -0.255988863474E+00
 MD| Potential energy [hartree]         -0.149508843642E+02  -0.149507179814E+02
 MD| Kinetic energy [hartree]            0.175375013924E-02   0.160491315504E-02
 MD| Temperature [K]                              52.741889            48.265799
 MD| ***************************************************************************

 Number of electrons:                                                         14
 Number of occupied orbitals:                                                  7
 Number of molecular orbitals:                                                 7

 Number of orbital functions:                                                 56
 Number of independent orbital functions:                                     56

 Extrapolation method: ASPC


 SCF WAVEFUNCTION OPTIMIZATION

  ----------------------------------- OT ---------------------------------------
  Minimizer      : CG                  : conjugate gradient
  Preconditioner : FULL_ALL            : diagonalization, state selective
  Precond_solver : DEFAULT
  Line search    : 2PNT                : 2 energies, one gradient
  stepsize       :    0.15000000                  energy_gap     :    0.08000000
  eps_taylor     :   0.10000E-15                  max_taylor     :             4
  ----------------------------------- OT ---------------------------------------

  Step     Update method      Time    Convergence         Total energy    Change
  ------------------------------------------------------------------------------
     1 OT CG       0.15E+00    0.6     0.00004727       -14.9509730239 -1.50E+01
     2 OT LS       0.18E+00    0.2                      -14.9509731013
     3 OT CG       0.18E+00    0.4     0.00001983       -14.9509731038 -7.99E-08
     4 OT LS       0.14E+00    0.2                      -14.9509731134
     5 OT CG       0.14E+00    0.5     0.00000273       -14.9509731145 -1.07E-08
     6 OT LS       0.17E+00    0.2                      -14.9509731147
     7 OT CG       0.17E+00    0.5     0.00000048       -14.9509731147 -2.52E-10

  *** SCF run converged in     7 steps ***


  Electronic density on regular grids:        -14.0000000000        0.0000000000
  Core density on regular grids:               13.9999999989       -0.0000000011
  Total charge density on r-space grids:       -0.0000000010
  Total charge density g-space grids:          -0.0000000010

  Overlap energy of the core charge distribution:               0.00000145372061
  Self energy of the core charge distribution:                -35.13285960674677
  Core Hamiltonian energy:                                     11.43087758751645
  Hartree energy:                                              14.41568361130757
  Exchange-correlation energy:                                 -5.66467616050864

  Total energy:                                               -14.95097311471078

  outer SCF iter =    1 RMS gradient =   0.48E-06 energy =        -14.9509731147
  outer SCF loop converged in   1 iterations or    7 steps


 ENERGY| Total FORCE_EVAL ( QS ) energy [a.u.]:              -14.950973114718241

 MD| ***************************************************************************
 MD| Step number                                                               5
 MD| Time [fs]                                                          2.500000
 MD| Conserved quantity [hartree]                            -0.149490274584E+02
 MD| ---------------------------------------------------------------------------
 MD|                                          Instantaneous             Averages
 MD| CPU time per MD step [s]                      3.396519             7.258746
 MD| Energy drift per atom [K]          -0.677896044028E+00  -0.340370299585E+00
 MD| Potential energy [hartree]         -0.149509731147E+02  -0.149507690081E+02
 MD| Kinetic energy [hartree]            0.183122200653E-02   0.165017492534E-02
 MD| Temperature [K]                              55.071760            49.626991
 MD| ***************************************************************************

 Number of electrons:                                                         14
 Number of occupied orbitals:                                                  7
 Number of molecular orbitals:                                                 7

 Number of orbital functions:                                                 56
 Number of independent orbital functions:                                     56

 Extrapolation method: ASPC


 SCF WAVEFUNCTION OPTIMIZATION

  ----------------------------------- OT ---------------------------------------
  Minimizer      : CG                  : conjugate gradient
  Preconditioner : FULL_ALL            : diagonalization, state selective
  Precond_solver : DEFAULT
  Line search    : 2PNT                : 2 energies, one gradient
  stepsize       :    0.15000000                  energy_gap     :    0.08000000
  eps_taylor     :   0.10000E-15                  max_taylor     :             4
  ----------------------------------- OT ---------------------------------------

  Step     Update method      Time    Convergence         Total energy    Change
  ------------------------------------------------------------------------------
     1 OT CG       0.15E+00    0.5     0.00004747       -14.9509574251 -1.50E+01
     2 OT LS       0.18E+00    0.3                      -14.9509575018
     3 OT CG       0.18E+00    0.3     0.00002059       -14.9509575038 -7.87E-08
     4 OT LS       0.14E+00    0.3                      -14.9509575149
     5 OT CG       0.14E+00    0.5     0.00000193       -14.9509575156 -1.19E-08
     6 OT LS       0.19E+00    0.2                      -14.9509575158
     7 OT CG       0.19E+00    0.4     0.00000039       -14.9509575158 -1.40E-10

  *** SCF run converged in     7 steps ***


  Electronic density on regular grids:        -14.0000000000        0.0000000000
  Core density on regular grids:               13.9999999989       -0.0000000011
  Total charge density on r-space grids:       -0.0000000010
  Total charge density g-space grids:          -0.0000000010

  Overlap energy of the core charge distribution:               0.00000168469429
  Self energy of the core charge distribution:                -35.13285960674677
  Core Hamiltonian energy:                                     11.46113072690227
  Hartree energy:                                              14.39519399758398
  Exchange-correlation energy:                                 -5.67442431820164

  Total energy:                                               -14.95095751576787

  outer SCF iter =    1 RMS gradient =   0.39E-06 energy =        -14.9509575158
  outer SCF loop converged in   1 iterations or    7 steps


 ENERGY| Total FORCE_EVAL ( QS ) energy [a.u.]:              -14.950957515772632

 MD| ***************************************************************************
 MD| Step number                                                               6
 MD| Time [fs]                                                          3.000000
 MD| Conserved quantity [hartree]                            -0.149490283310E+02
 MD| ---------------------------------------------------------------------------
 MD|                                          Instantaneous             Averages
 MD| CPU time per MD step [s]                      3.186364             6.580015
 MD| Energy drift per atom [K]          -0.712339685176E+00  -0.402365197183E+00
 MD| Potential energy [hartree]         -0.149509575158E+02  -0.149508004260E+02
 MD| Kinetic energy [hartree]            0.180683834180E-02   0.167628549475E-02
 MD| Temperature [K]                              54.338452            50.412234
 MD| ***************************************************************************

 Number of electrons:                                                         14
 Number of occupied orbitals:                                                  7
 Number of molecular orbitals:                                                 7

 Number of orbital functions:                                                 56
 Number of independent orbital functions:                                     56

 Extrapolation method: ASPC


 SCF WAVEFUNCTION OPTIMIZATION

  ----------------------------------- OT ---------------------------------------
  Minimizer      : CG                  : conjugate gradient
  Preconditioner : FULL_ALL            : diagonalization, state selective
  Precond_solver : DEFAULT
  Line search    : 2PNT                : 2 energies, one gradient
  stepsize       :    0.15000000                  energy_gap     :    0.08000000
  eps_taylor     :   0.10000E-15                  max_taylor     :             4
  ----------------------------------- OT ---------------------------------------

  Step     Update method      Time    Convergence         Total energy    Change
  ------------------------------------------------------------------------------
     1 OT CG       0.15E+00    0.6     0.00005651       -14.9508270203 -1.50E+01
     2 OT LS       0.17E+00    0.2                      -14.9508271232
     3 OT CG       0.17E+00    0.4     0.00002466       -14.9508271241 -1.04E-07
     4 OT LS       0.15E+00    0.3                      -14.9508271420
     5 OT CG       0.15E+00    0.5     0.00000212       -14.9508271422 -1.80E-08
     6 OT LS       0.20E+00    0.1                      -14.9508271423
     7 OT CG       0.20E+00    0.3     0.00000054       -14.9508271423 -1.73E-10

  *** SCF run converged in     7 steps ***


  Electronic density on regular grids:        -14.0000000000        0.0000000000
  Core density on regular grids:               13.9999999989       -0.0000000011
  Total charge density on r-space grids:       -0.0000000010
  Total charge density g-space grids:          -0.0000000010

  Overlap energy of the core charge distribution:               0.00000193322269
  Self energy of the core charge distribution:                -35.13285960674677
  Core Hamiltonian energy:                                     11.49037697619349
  Hartree energy:                                              14.37548347899963
  Exchange-correlation energy:                                 -5.68382992401339

  Total energy:                                               -14.95082714234435

  outer SCF iter =    1 RMS gradient =   0.54E-06 energy =        -14.9508271423
  outer SCF loop converged in   1 iterations or    7 steps


 ENERGY| Total FORCE_EVAL ( QS ) energy [a.u.]:              -14.950827142350278

 MD| ***************************************************************************
 MD| Step number                                                               7
 MD| Time [fs]                                                          3.500000
 MD| Conserved quantity [hartree]                            -0.149490261948E+02
 MD| ---------------------------------------------------------------------------
 MD|                                          Instantaneous             Averages
 MD| CPU time per MD step [s]                      5.336010             6.402300
 MD| Energy drift per atom [K]          -0.628018574362E+00  -0.434601393923E+00
 MD| Potential energy [hartree]         -0.149508271424E+02  -0.149508042426E+02
 MD| Kinetic energy [hartree]            0.167100100981E-02   0.167553056833E-02
 MD| Temperature [K]                              50.253310            50.389531
 MD| ***************************************************************************

 Number of electrons:                                                         14
 Number of occupied orbitals:                                                  7
 Number of molecular orbitals:                                                 7

 Number of orbital functions:                                                 56
 Number of independent orbital functions:                                     56

 Extrapolation method: ASPC


 SCF WAVEFUNCTION OPTIMIZATION

  ----------------------------------- OT ---------------------------------------
  Minimizer      : CG                  : conjugate gradient
  Preconditioner : FULL_ALL            : diagonalization, state selective
  Precond_solver : DEFAULT
  Line search    : 2PNT                : 2 energies, one gradient
  stepsize       :    0.15000000                  energy_gap     :    0.08000000
  eps_taylor     :   0.10000E-15                  max_taylor     :             4
  ----------------------------------- OT ---------------------------------------

  Step     Update method      Time    Convergence         Total energy    Change
  ------------------------------------------------------------------------------
     1 OT CG       0.15E+00    0.5     0.00006982       -14.9506185749 -1.50E+01
     2 OT LS       0.16E+00    0.3                      -14.9506187254
     3 OT CG       0.16E+00    0.5     0.00002969       -14.9506187257 -1.51E-07
     4 OT LS       0.16E+00    0.2                      -14.9506187529
     5 OT CG       0.16E+00    0.4     0.00000296       -14.9506187529 -2.72E-08
     6 OT LS       0.19E+00    0.2                      -14.9506187532
     7 OT CG       0.19E+00    0.2     0.00000064       -14.9506187532 -3.25E-10

  *** SCF run converged in     7 steps ***


  Electronic density on regular grids:        -14.0000000000        0.0000000000
  Core density on regular grids:               13.9999999989       -0.0000000011
  Total charge density on r-space grids:       -0.0000000010
  Total charge density g-space grids:          -0.0000000010

  Overlap energy of the core charge distribution:               0.00000217508351
  Self energy of the core charge distribution:                -35.13285960674677
  Core Hamiltonian energy:                                     11.51607816211619
  Hartree energy:                                              14.35824613085749
  Exchange-correlation energy:                                 -5.69208561453662

  Total energy:                                               -14.95061875322620

  outer SCF iter =    1 RMS gradient =   0.64E-06 energy =        -14.9506187532
  outer SCF loop converged in   1 iterations or    7 steps


 ENERGY| Total FORCE_EVAL ( QS ) energy [a.u.]:              -14.950618753237961

 MD| ***************************************************************************
 MD| Step number                                                               8
 MD| Time [fs]                                                          4.000000
 MD| Conserved quantity [hartree]                            -0.149490216644E+02
 MD| ---------------------------------------------------------------------------
 MD|                                          Instantaneous             Averages
 MD| CPU time per MD step [s]                      2.783083             5.949898
 MD| Energy drift per atom [K]          -0.449193710781E+00  -0.436425433530E+00
 MD| Potential energy [hartree]         -0.149506187532E+02  -0.149507810565E+02
 MD| Kinetic energy [hartree]            0.146029078012E-02   0.164862559480E-02
 MD| Temperature [K]                              43.916458            49.580397
 MD| ***************************************************************************

 Number of electrons:                                                         14
 Number of occupied orbitals:                                                  7
 Number of molecular orbitals:                                                 7

 Number of orbital functions:                                                 56
 Number of independent orbital functions:                                     56

 Extrapolation method: ASPC


 SCF WAVEFUNCTION OPTIMIZATION

  ----------------------------------- OT ---------------------------------------
  Minimizer      : CG                  : conjugate gradient
  Preconditioner : FULL_ALL            : diagonalization, state selective
  Precond_solver : DEFAULT
  Line search    : 2PNT                : 2 energies, one gradient
  stepsize       :    0.15000000                  energy_gap     :    0.08000000
  eps_taylor     :   0.10000E-15                  max_taylor     :             4
  ----------------------------------- OT ---------------------------------------

  Step     Update method      Time    Convergence         Total energy    Change
  ------------------------------------------------------------------------------
     1 OT CG       0.15E+00    0.4     0.00008303       -14.9504058952 -1.50E+01
     2 OT LS       0.15E+00    0.2                      -14.9504061028
     3 OT CG       0.15E+00    0.5     0.00003445       -14.9504061029 -2.08E-07
     4 OT LS       0.16E+00    0.2                      -14.9504061402
     5 OT CG       0.16E+00    0.4     0.00000387       -14.9504061402 -3.73E-08
     6 OT LS       0.18E+00    0.2                      -14.9504061408
     7 OT CG       0.18E+00    0.5     0.00000072       -14.9504061408 -5.43E-10

  *** SCF run converged in     7 steps ***


  Electronic density on regular grids:        -14.0000000000        0.0000000000
  Core density on regular grids:               13.9999999989       -0.0000000011
  Total charge density on r-space grids:       -0.0000000010
  Total charge density g-space grids:          -0.0000000010

  Overlap energy of the core charge distribution:               0.00000238171026
  Self energy of the core charge distribution:                -35.13285960674677
  Core Hamiltonian energy:                                     11.53584393178387
  Hartree energy:                                              14.34504801127188
  Exchange-correlation energy:                                 -5.69844085879027

  Total energy:                                               -14.95040614077102

  outer SCF iter =    1 RMS gradient =   0.72E-06 energy =        -14.9504061408
  outer SCF loop converged in   1 iterations or    7 steps


 ENERGY| Total FORCE_EVAL ( QS ) energy [a.u.]:              -14.950406140789251

 MD| ***************************************************************************
 MD| Step number                                                               9
 MD| Time [fs]                                                          4.500000
 MD| Conserved quantity [hartree]                            -0.149490161478E+02
 MD| ---------------------------------------------------------------------------
 MD|                                          Instantaneous             Averages
 MD| CPU time per MD step [s]                      3.140323             5.637723
 MD| Energy drift per atom [K]          -0.231443888602E+00  -0.413649706316E+00
 MD| Potential energy [hartree]         -0.149504061408E+02  -0.149507393992E+02
 MD| Kinetic energy [hartree]            0.124729528626E-02   0.160403333830E-02
 MD| Temperature [K]                              37.510879            48.239339
 MD| ***************************************************************************

 Number of electrons:                                                         14
 Number of occupied orbitals:                                                  7
 Number of molecular orbitals:                                                 7

 Number of orbital functions:                                                 56
 Number of independent orbital functions:                                     56

 Extrapolation method: ASPC


 SCF WAVEFUNCTION OPTIMIZATION

  ----------------------------------- OT ---------------------------------------
  Minimizer      : CG                  : conjugate gradient
  Preconditioner : FULL_ALL            : diagonalization, state selective
  Precond_solver : DEFAULT
  Line search    : 2PNT                : 2 energies, one gradient
  stepsize       :    0.15000000                  energy_gap     :    0.08000000
  eps_taylor     :   0.10000E-15                  max_taylor     :             4
  ----------------------------------- OT ---------------------------------------

  Step     Update method      Time    Convergence         Total energy    Change
  ------------------------------------------------------------------------------
     1 OT CG       0.15E+00    0.5     0.00009284       -14.9502773433 -1.50E+01
     2 OT LS       0.15E+00    0.2                      -14.9502776003
     3 OT CG       0.15E+00    0.5     0.00003799       -14.9502776004 -2.57E-07
     4 OT LS       0.16E+00    0.2                      -14.9502776459
     5 OT CG       0.16E+00    0.4     0.00000458       -14.9502776460 -4.56E-08
     6 OT LS       0.18E+00    0.2                      -14.9502776468
     7 OT CG       0.18E+00    0.4     0.00000079       -14.9502776468 -7.52E-10

  *** SCF run converged in     7 steps ***


  Electronic density on regular grids:        -14.0000000000        0.0000000000
  Core density on regular grids:               13.9999999989       -0.0000000011
  Total charge density on r-space grids:       -0.0000000010
  Total charge density g-space grids:          -0.0000000010

  Overlap energy of the core charge distribution:               0.00000252504623
  Self energy of the core charge distribution:                -35.13285960674677
  Core Hamiltonian energy:                                     11.54768878325775
  Hartree energy:                                              14.33716915848563
  Exchange-correlation energy:                                 -5.70227850682390

  Total energy:                                               -14.95027764678107

  outer SCF iter =    1 RMS gradient =   0.79E-06 energy =        -14.9502776468
  outer SCF loop converged in   1 iterations or    7 steps


 ENERGY| Total FORCE_EVAL ( QS ) energy [a.u.]:              -14.950277646804896

 MD| ***************************************************************************
 MD| Step number                                                              10
 MD| Time [fs]                                                          5.000000
 MD| Conserved quantity [hartree]                            -0.149490114489E+02
 MD| ---------------------------------------------------------------------------
 MD|                                          Instantaneous             Averages
 MD| CPU time per MD step [s]                      3.208470             5.394798
 MD| Energy drift per atom [K]          -0.459712378045E-01  -0.376881859465E+00
 MD| Potential energy [hartree]         -0.149502776468E+02  -0.149506932239E+02
 MD| Kinetic energy [hartree]            0.111839628697E-02   0.155546963316E-02
 MD| Temperature [K]                              33.634399            46.778845
 MD| ***************************************************************************

 Number of electrons:                                                         14
 Number of occupied orbitals:                                                  7
 Number of molecular orbitals:                                                 7

 Number of orbital functions:                                                 56
 Number of independent orbital functions:                                     56

 Extrapolation method: ASPC


 SCF WAVEFUNCTION OPTIMIZATION

  ----------------------------------- OT ---------------------------------------
  Minimizer      : CG                  : conjugate gradient
  Preconditioner : FULL_ALL            : diagonalization, state selective
  Precond_solver : DEFAULT
  Line search    : 2PNT                : 2 energies, one gradient
  stepsize       :    0.15000000                  energy_gap     :    0.08000000
  eps_taylor     :   0.10000E-15                  max_taylor     :             4
  ----------------------------------- OT ---------------------------------------

  Step     Update method      Time    Convergence         Total energy    Change
  ------------------------------------------------------------------------------
     1 OT CG       0.15E+00    0.4     0.00009734       -14.9503073329 -1.50E+01
     2 OT LS       0.15E+00    0.2                      -14.9503076154
     3 OT CG       0.15E+00    0.5     0.00003967       -14.9503076154 -2.83E-07
     4 OT LS       0.16E+00    0.3                      -14.9503076650
     5 OT CG       0.16E+00    0.5     0.00000498       -14.9503076651 -4.97E-08
     6 OT LS       0.18E+00    0.2                      -14.9503076660
     7 OT CG       0.18E+00    0.3     0.00000084       -14.9503076660 -8.80E-10

  *** SCF run converged in     7 steps ***


  Electronic density on regular grids:        -14.0000000000        0.0000000000
  Core density on regular grids:               13.9999999989       -0.0000000011
  Total charge density on r-space grids:       -0.0000000010
  Total charge density g-space grids:          -0.0000000010

  Overlap energy of the core charge distribution:               0.00000258291368
  Self energy of the core charge distribution:                -35.13285960674677
  Core Hamiltonian energy:                                     11.55026530984354
  Hartree energy:                                              14.33546736029666
  Exchange-correlation energy:                                 -5.70318331230191

  Total energy:                                               -14.95030766599480

  outer SCF iter =    1 RMS gradient =   0.84E-06 energy =        -14.9503076660
  outer SCF loop converged in   1 iterations or    7 steps


 ENERGY| Total FORCE_EVAL ( QS ) energy [a.u.]:              -14.950307666022008

 MD| ***************************************************************************
 MD| Step number                                                              11
 MD| Time [fs]                                                          5.500000
 MD| Conserved quantity [hartree]                            -0.149490092408E+02
 MD| ---------------------------------------------------------------------------
 MD|                                          Instantaneous             Averages
 MD| CPU time per MD step [s]                      3.233582             5.198324
 MD| Energy drift per atom [K]           0.411875921869E-01  -0.338875545678E+00
 MD| Potential energy [hartree]         -0.149503076660E+02  -0.149506581732E+02
 MD| Kinetic energy [hartree]            0.114580459039E-02   0.151822735655E-02
 MD| Temperature [K]                              34.458671            45.658829
 MD| ***************************************************************************

 Number of electrons:                                                         14
 Number of occupied orbitals:                                                  7
 Number of molecular orbitals:                                                 7

 Number of orbital functions:                                                 56
 Number of independent orbital functions:                                     56

 Extrapolation method: ASPC


 SCF WAVEFUNCTION OPTIMIZATION

  ----------------------------------- OT ---------------------------------------
  Minimizer      : CG                  : conjugate gradient
  Preconditioner : FULL_ALL            : diagonalization, state selective
  Precond_solver : DEFAULT
  Line search    : 2PNT                : 2 energies, one gradient
  stepsize       :    0.15000000                  energy_gap     :    0.08000000
  eps_taylor     :   0.10000E-15                  max_taylor     :             4
  ----------------------------------- OT ---------------------------------------

  Step     Update method      Time    Convergence         Total energy    Change
  ------------------------------------------------------------------------------
     1 OT CG       0.15E+00    0.3     0.00009570       -14.9505302248 -1.50E+01
     2 OT LS       0.15E+00    0.2                      -14.9505304990
     3 OT CG       0.15E+00    0.4     0.00003909       -14.9505304991 -2.74E-07
     4 OT LS       0.16E+00    0.2                      -14.9505305470
     5 OT CG       0.16E+00    0.4     0.00000498       -14.9505305471 -4.80E-08
     6 OT LS       0.18E+00    0.3                      -14.9505305480
     7 OT CG       0.18E+00    0.5     0.00000085       -14.9505305480 -8.77E-10

  *** SCF run converged in     7 steps ***


  Electronic density on regular grids:        -14.0000000000        0.0000000000
  Core density on regular grids:               13.9999999989       -0.0000000011
  Total charge density on r-space grids:       -0.0000000010
  Total charge density g-space grids:          -0.0000000010

  Overlap energy of the core charge distribution:               0.00000254410914
  Self energy of the core charge distribution:                -35.13285960674677
  Core Hamiltonian energy:                                     11.54304284874801
  Hartree energy:                                              14.34027664811525
  Exchange-correlation energy:                                 -5.70099298220730

  Total energy:                                               -14.95053054798166

  outer SCF iter =    1 RMS gradient =   0.85E-06 energy =        -14.9505305480
  outer SCF loop converged in   1 iterations or    7 steps


 ENERGY| Total FORCE_EVAL ( QS ) energy [a.u.]:              -14.950530548008986

 MD| ***************************************************************************
 MD| Step number                                                              12
 MD| Time [fs]                                                          6.000000
 MD| Conserved quantity [hartree]                            -0.149490105126E+02
 MD| ---------------------------------------------------------------------------
 MD|                                          Instantaneous             Averages
 MD| CPU time per MD step [s]                      2.857936             5.003291
 MD| Energy drift per atom [K]          -0.901142529931E-02  -0.311386868980E+00
 MD| Potential energy [hartree]         -0.149505305480E+02  -0.149506475378E+02
 MD| Kinetic energy [hartree]            0.136214505734E-02   0.150522049828E-02
 MD| Temperature [K]                              40.964845            45.267664
 MD| ***************************************************************************

 Number of electrons:                                                         14
 Number of occupied orbitals:                                                  7
 Number of molecular orbitals:                                                 7

 Number of orbital functions:                                                 56
 Number of independent orbital functions:                                     56

 Extrapolation method: ASPC


 SCF WAVEFUNCTION OPTIMIZATION

  ----------------------------------- OT ---------------------------------------
  Minimizer      : CG                  : conjugate gradient
  Preconditioner : FULL_ALL            : diagonalization, state selective
  Precond_solver : DEFAULT
  Line search    : 2PNT                : 2 energies, one gradient
  stepsize       :    0.15000000                  energy_gap     :    0.08000000
  eps_taylor     :   0.10000E-15                  max_taylor     :             4
  ----------------------------------- OT ---------------------------------------

  Step     Update method      Time    Convergence         Total energy    Change
  ------------------------------------------------------------------------------
     1 OT CG       0.15E+00    0.5     0.00008765       -14.9509252853 -1.50E+01
     2 OT LS       0.15E+00    0.3                      -14.9509255174
     3 OT CG       0.15E+00    0.6     0.00003610       -14.9509255175 -2.32E-07
     4 OT LS       0.16E+00    0.3                      -14.9509255582
     5 OT CG       0.16E+00    0.5     0.00000458       -14.9509255582 -4.07E-08
     6 OT LS       0.18E+00    0.3                      -14.9509255589
     7 OT CG       0.18E+00    0.4     0.00000082       -14.9509255589 -7.36E-10

  *** SCF run converged in     7 steps ***


  Electronic density on regular grids:        -14.0000000000        0.0000000000
  Core density on regular grids:               13.9999999989       -0.0000000011
  Total charge density on r-space grids:       -0.0000000010
  Total charge density g-space grids:          -0.0000000010

  Overlap energy of the core charge distribution:               0.00000241225052
  Self energy of the core charge distribution:                -35.13285960674677
  Core Hamiltonian energy:                                     11.52638987894113
  Hartree energy:                                              14.35136279722926
  Exchange-correlation energy:                                 -5.69582104062250

  Total energy:                                               -14.95092555894836

  outer SCF iter =    1 RMS gradient =   0.82E-06 energy =        -14.9509255589
  outer SCF loop converged in   1 iterations or    7 steps


 ENERGY| Total FORCE_EVAL ( QS ) energy [a.u.]:              -14.950925558972301

 MD| ***************************************************************************
 MD| Step number                                                              13
 MD| Time [fs]                                                          6.500000
 MD| Conserved quantity [hartree]                            -0.149490151456E+02
 MD| ---------------------------------------------------------------------------
 MD|                                          Instantaneous             Averages
 MD| CPU time per MD step [s]                      3.452861             4.884027
 MD| Energy drift per atom [K]          -0.191886128453E+00  -0.302194504324E+00
 MD| Potential energy [hartree]         -0.149509255590E+02  -0.149506689240E+02
 MD| Kinetic energy [hartree]            0.174603440337E-02   0.152374464483E-02
 MD| Temperature [K]                              52.509848            45.824755
 MD| ***************************************************************************

 Number of electrons:                                                         14
 Number of occupied orbitals:                                                  7
 Number of molecular orbitals:                                                 7

 Number of orbital functions:                                                 56
 Number of independent orbital functions:                                     56

 Extrapolation method: ASPC


 SCF WAVEFUNCTION OPTIMIZATION

  ----------------------------------- OT ---------------------------------------
  Minimizer      : CG                  : conjugate gradient
  Preconditioner : FULL_ALL            : diagonalization, state selective
  Precond_solver : DEFAULT
  Line search    : 2PNT                : 2 energies, one gradient
  stepsize       :    0.15000000                  energy_gap     :    0.08000000
  eps_taylor     :   0.10000E-15                  max_taylor     :             4
  ----------------------------------- OT ---------------------------------------

  Step     Update method      Time    Convergence         Total energy    Change
  ------------------------------------------------------------------------------
     1 OT CG       0.15E+00    0.5     0.00007418       -14.9514190917 -1.50E+01
     2 OT LS       0.16E+00    0.2                      -14.9514192604
     3 OT CG       0.16E+00    0.5     0.00003099       -14.9514192607 -1.69E-07
     4 OT LS       0.16E+00    0.3                      -14.9514192903
     5 OT CG       0.16E+00    0.5     0.00000381       -14.9514192903 -2.96E-08
     6 OT LS       0.18E+00    0.2                      -14.9514192908
     7 OT CG       0.18E+00    0.3     0.00000074       -14.9514192908 -5.06E-10

  *** SCF run converged in     7 steps ***


  Electronic density on regular grids:        -14.0000000000        0.0000000000
  Core density on regular grids:               13.9999999989       -0.0000000011
  Total charge density on r-space grids:       -0.0000000010
  Total charge density g-space grids:          -0.0000000010

  Overlap energy of the core charge distribution:               0.00000220639303
  Self energy of the core charge distribution:                -35.13285960674677
  Core Hamiltonian energy:                                     11.50154045548613
  Hartree energy:                                              14.36794416952452
  Exchange-correlation energy:                                 -5.68804651546731

  Total energy:                                               -14.95141929081041

  outer SCF iter =    1 RMS gradient =   0.74E-06 energy =        -14.9514192908
  outer SCF loop converged in   1 iterations or    7 steps


 ENERGY| Total FORCE_EVAL ( QS ) energy [a.u.]:              -14.951419290828419

 MD| ***************************************************************************
 MD| Step number                                                              14
 MD| Time [fs]                                                          7.000000
 MD| Conserved quantity [hartree]                            -0.149490218282E+02
 MD| ---------------------------------------------------------------------------
 MD|                                          Instantaneous             Averages
 MD| CPU time per MD step [s]                      3.263568             4.768280
 MD| Energy drift per atom [K]          -0.455660223661E+00  -0.313156341420E+00
 MD| Potential energy [hartree]         -0.149514192908E+02  -0.149507225217E+02
 MD| Kinetic energy [hartree]            0.222475748396E-02   0.157381699048E-02
 MD| Temperature [K]                              66.906858            47.330620
 MD| ***************************************************************************

 Number of electrons:                                                         14
 Number of occupied orbitals:                                                  7
 Number of molecular orbitals:                                                 7

 Number of orbital functions:                                                 56
 Number of independent orbital functions:                                     56

 Extrapolation method: ASPC


 SCF WAVEFUNCTION OPTIMIZATION

  ----------------------------------- OT ---------------------------------------
  Minimizer      : CG                  : conjugate gradient
  Preconditioner : FULL_ALL            : diagonalization, state selective
  Precond_solver : DEFAULT
  Line search    : 2PNT                : 2 energies, one gradient
  stepsize       :    0.15000000                  energy_gap     :    0.08000000
  eps_taylor     :   0.10000E-15                  max_taylor     :             4
  ----------------------------------- OT ---------------------------------------

  Step     Update method      Time    Convergence         Total energy    Change
  ------------------------------------------------------------------------------
     1 OT CG       0.15E+00    0.4     0.00005782       -14.9519063513 -1.50E+01
     2 OT LS       0.16E+00    0.3                      -14.9519064568
     3 OT CG       0.16E+00    0.5     0.00002470       -14.9519064574 -1.06E-07
     4 OT LS       0.15E+00    0.3                      -14.9519064757
     5 OT CG       0.15E+00    0.6     0.00000280       -14.9519064757 -1.84E-08
     6 OT LS       0.18E+00    0.2                      -14.9519064760
     7 OT CG       0.18E+00    0.4     0.00000061       -14.9519064760 -2.74E-10

  *** SCF run converged in     7 steps ***


  Electronic density on regular grids:        -14.0000000000        0.0000000000
  Core density on regular grids:               13.9999999989       -0.0000000011
  Total charge density on r-space grids:       -0.0000000010
  Total charge density g-space grids:          -0.0000000010

  Overlap energy of the core charge distribution:               0.00000195675888
  Self energy of the core charge distribution:                -35.13285960674677
  Core Hamiltonian energy:                                     11.47044622276392
  Hartree energy:                                              14.38877609990772
  Exchange-correlation energy:                                 -5.67827114869615

  Total energy:                                               -14.95190647601240

  outer SCF iter =    1 RMS gradient =   0.61E-06 energy =        -14.9519064760
  outer SCF loop converged in   1 iterations or    7 steps


 ENERGY| Total FORCE_EVAL ( QS ) energy [a.u.]:              -14.951906476023805

 MD| ***************************************************************************
 MD| Step number                                                              15
 MD| Time [fs]                                                          7.500000
 MD| Conserved quantity [hartree]                            -0.149490284631E+02
 MD| ---------------------------------------------------------------------------
 MD|                                          Instantaneous             Averages
 MD| CPU time per MD step [s]                      3.085201             4.656075
 MD| Energy drift per atom [K]          -0.717550266833E+00  -0.340115936447E+00
 MD| Potential energy [hartree]         -0.149519064760E+02  -0.149508014519E+02
 MD| Kinetic energy [hartree]            0.269480986236E-02   0.164854984860E-02
 MD| Temperature [K]                              81.043108            49.578119
 MD| ***************************************************************************

 Number of electrons:                                                         14
 Number of occupied orbitals:                                                  7
 Number of molecular orbitals:                                                 7

 Number of orbital functions:                                                 56
 Number of independent orbital functions:                                     56

 Extrapolation method: ASPC


 SCF WAVEFUNCTION OPTIMIZATION

  ----------------------------------- OT ---------------------------------------
  Minimizer      : CG                  : conjugate gradient
  Preconditioner : FULL_ALL            : diagonalization, state selective
  Precond_solver : DEFAULT
  Line search    : 2PNT                : 2 energies, one gradient
  stepsize       :    0.15000000                  energy_gap     :    0.08000000
  eps_taylor     :   0.10000E-15                  max_taylor     :             4
  ----------------------------------- OT ---------------------------------------

  Step     Update method      Time    Convergence         Total energy    Change
  ------------------------------------------------------------------------------
     1 OT CG       0.15E+00    0.3     0.00004375       -14.9522826965 -1.50E+01
     2 OT LS       0.17E+00    0.2                      -14.9522827599
     3 OT CG       0.17E+00    0.3     0.00001903       -14.9522827610 -6.45E-08
     4 OT LS       0.15E+00    0.2                      -14.9522827711
     5 OT CG       0.15E+00    0.3     0.00000189       -14.9522827714 -1.04E-08
     6 OT LS       0.18E+00    0.2                      -14.9522827715
     7 OT CG       0.18E+00    0.3     0.00000044       -14.9522827716 -1.28E-10

  *** SCF run converged in     7 steps ***


  Electronic density on regular grids:        -14.0000000000        0.0000000000
  Core density on regular grids:               13.9999999989       -0.0000000011
  Total charge density on r-space grids:       -0.0000000010
  Total charge density g-space grids:          -0.0000000010

  Overlap energy of the core charge distribution:               0.00000169665659
  Self energy of the core charge distribution:                -35.13285960674677
  Core Hamiltonian energy:                                     11.43554228364932
  Hartree energy:                                              14.41228456440412
  Exchange-correlation energy:                                 -5.66725170951369

  Total energy:                                               -14.95228277155044

  outer SCF iter =    1 RMS gradient =   0.44E-06 energy =        -14.9522827716
  outer SCF loop converged in   1 iterations or    7 steps


 ENERGY| Total FORCE_EVAL ( QS ) energy [a.u.]:              -14.952282771556263

 MD| ***************************************************************************
 MD| Step number                                                              16
 MD| Time [fs]                                                          8.000000
 MD| Conserved quantity [hartree]                            -0.149490329488E+02
 MD| ---------------------------------------------------------------------------
 MD|                                          Instantaneous             Averages
 MD| CPU time per MD step [s]                      2.422118             4.516453
 MD| Energy drift per atom [K]          -0.894610398308E+00  -0.374771840314E+00
 MD| Potential energy [hartree]         -0.149522827716E+02  -0.149508940344E+02
 MD| Kinetic energy [hartree]            0.305398397482E-02   0.173638948149E-02
 MD| Temperature [K]                              91.844830            52.219788
 MD| ***************************************************************************

 Number of electrons:                                                         14
 Number of occupied orbitals:                                                  7
 Number of molecular orbitals:                                                 7

 Number of orbital functions:                                                 56
 Number of independent orbital functions:                                     56

 Extrapolation method: ASPC


 SCF WAVEFUNCTION OPTIMIZATION

  ----------------------------------- OT ---------------------------------------
  Minimizer      : CG                  : conjugate gradient
  Preconditioner : FULL_ALL            : diagonalization, state selective
  Precond_solver : DEFAULT
  Line search    : 2PNT                : 2 energies, one gradient
  stepsize       :    0.15000000                  energy_gap     :    0.08000000
  eps_taylor     :   0.10000E-15                  max_taylor     :             4
  ----------------------------------- OT ---------------------------------------

  Step     Update method      Time    Convergence         Total energy    Change
  ------------------------------------------------------------------------------
     1 OT CG       0.15E+00    0.5     0.00004026       -14.9524774409 -1.50E+01
     2 OT LS       0.18E+00    0.2                      -14.9524774954
[...]
  Core Hamiltonian energy:                                     11.34935758492842
  Hartree energy:                                              14.47318627153250
  Exchange-correlation energy:                                 -5.64175721343345

  Total energy:                                               -14.95207148661856

  outer SCF iter =    1 RMS gradient =   0.25E-06 energy =        -14.9520714866
  outer SCF loop converged in   1 iterations or    7 steps


 ENERGY| Total FORCE_EVAL ( QS ) energy [a.u.]:              -14.952071486620945

 MD| ***************************************************************************
 MD| Step number                                                            1000
 MD| Time [fs]                                                        500.000000
 MD| Conserved quantity [hartree]                            -0.149490341425E+02
 MD| ---------------------------------------------------------------------------
 MD|                                          Instantaneous             Averages
 MD| CPU time per MD step [s]                      3.285343             2.917660
 MD| Energy drift per atom [K]          -0.941729736272E+00  -0.649256774450E+00
 MD| Potential energy [hartree]         -0.149520714866E+02  -0.149518559873E+02
 MD| Kinetic energy [hartree]            0.208584481640E-02   0.150465590309E-02
 MD| Temperature [K]                              62.729230            45.250685
 MD| ***************************************************************************

 -------------------------------------------------------------------------------
 -                                                                             -
 -                                DBCSR STATISTICS                             -
 -                                                                             -
 -------------------------------------------------------------------------------
 COUNTER                                    TOTAL       BLAS       SMM       ACC
 flops     7 x     7 x     7              2894234       0.0%    100.0%      0.0%
 flops     5 x    13 x     7             49047180       0.0%    100.0%      0.0%
 flops    13 x     5 x     7             49047180       0.0%    100.0%      0.0%
 flops     7 x     7 x    13             50845340       0.0%    100.0%      0.0%
 flops     7 x     7 x     5             58667700       0.0%    100.0%      0.0%
 flops    13 x    13 x     7             63761334       0.0%    100.0%      0.0%
 flops     5 x     5 x     7             66025050       0.0%    100.0%      0.0%
 flops    26 x     7 x     7             68632928       0.0%    100.0%      0.0%
 flops    10 x     7 x     7             79191840       0.0%    100.0%      0.0%
 flops    26 x     7 x    13             94488576       0.0%    100.0%      0.0%
 flops    26 x     7 x     5            109025280       0.0%    100.0%      0.0%
 flops    10 x     7 x    13            109025280       0.0%    100.0%      0.0%
 flops    10 x     7 x     5            125798400       0.0%    100.0%      0.0%
 flops    13 x     7 x    13            207933544       0.0%    100.0%      0.0%
 flops    13 x     7 x     5            239923320       0.0%    100.0%      0.0%
 flops     5 x     7 x    13            239923320       0.0%    100.0%      0.0%
 flops     5 x     7 x     5            276834600       0.0%    100.0%      0.0%
 flops inhomo. stacks                           0       0.0%      0.0%      0.0%
 flops total                         1.891065E+09       0.0%    100.0%      0.0%
 flops max/rank                    896.172256E+06       0.0%    100.0%      0.0%
 matmuls inhomo. stacks                         0       0.0%      0.0%      0.0%
 matmuls total                            2320623       0.0%    100.0%      0.0%
 number of processed stacks               1509755       0.0%    100.0%      0.0%
 average stack size                                     0.0       1.5       0.0
 marketing flops                     2.063690E+09
 -------------------------------------------------------------------------------
 # multiplications                          93049
 max memory usage/rank             177.893376E+06
 # max total images/rank                        3
 # max 3D layers                                1
 # MPI messages exchanged                42430344
 MPI messages size (bytes):
  total size                         5.500981E+09
  min size                           0.000000E+00
  max size                           2.704000E+03
  average size                     129.647339E+00
 MPI breakdown and total messages size (bytes):
             size <=      128            34278870                        0
       128 < size <=     8192             8151474               5502328384
      8192 < size <=    32768                   0                        0
     32768 < size <=   131072                   0                        0
    131072 < size <=  4194304                   0                        0
   4194304 < size <= 16777216                   0                        0
  16777216 < size                               0                        0
 -------------------------------------------------------------------------------

 *** WARNING in dbcsr_mm.F:294 :: Using a non-square number of MPI ranks ***
 *** might lead to poor performance. Used ranks: 24 Suggested: 25 49     ***

 -------------------------------------------------------------------------------
 -                                                                             -
 -                      DBCSR MESSAGE PASSING PERFORMANCE                      -
 -                                                                             -
 -------------------------------------------------------------------------------
 ROUTINE             CALLS      AVE VOLUME [Bytes]
 MP_Bcast               18                     12.
 MP_Allreduce       452284                      8.
 MP_Alltoall        563630                   1694.
 MP_ISend          3904054                    219.
 MP_IRecv          3904054                    144.
 -------------------------------------------------------------------------------

 -------------------------------------------------------------------------------
 -                                                                             -
 -                                GRID STATISTICS                              -
 -                                                                             -
 -------------------------------------------------------------------------------
 LP    KERNEL             BACKEND                              COUNT     PERCENT
 2     collocate ortho    REF                                5458086      35.42%
 3     collocate ortho    REF                                3043406      19.75%
 2     integrate ortho    REF                                2729043      17.71%
 3     integrate ortho    REF                                2206203      14.32%
 4     integrate ortho    REF                                 752871       4.89%
 4     collocate ortho    REF                                 742430       4.82%
 0     collocate general  REF                                 192192       1.25%
 1     integrate general  REF                                 192192       1.25%
 5     integrate ortho    REF                                  93098       0.60%
 -------------------------------------------------------------------------------

 MEMORY| Estimated peak process memory [MiB]                                 170

 -------------------------------------------------------------------------------
 -                                                                             -
 -                         MESSAGE PASSING PERFORMANCE                         -
 -                                                                             -
 -------------------------------------------------------------------------------

 ROUTINE             CALLS      AVE VOLUME [Bytes]
 MP_Group                4
 MP_Bcast            75876                   5772.
 MP_Allreduce       168430                     47.
 MP_Sync              6080
 MP_Alltoall        135772                2790166.
 MP_ISendRecv       895206                  53808.
 MP_Wait           1404390
 MP_comm_split        3038
 MP_ISend           449280                 171620.
 MP_IRecv           449280                 171447.
 MP_Recv              3006                    896.
 -------------------------------------------------------------------------------


 -------------------------------------------------------------------------------
 -                                                                             -
 -                           R E F E R E N C E S                               -
 -                                                                             -
 -------------------------------------------------------------------------------
 
 CP2K version 8.2, the CP2K developers group (2021).
 CP2K is freely available from https://www.cp2k.org/ .

 Kuehne,Thomas D.; Iannuzzi,Marcella; Del Ben,Mauro;
 Rybkin,Vladimir V.; Seewald,Patrick; Stein,Frederick; Laino,Teodoro;
 Khaliullin,Rustam Z.; Schuett,Ole; Schiffmann,Florian; Golze,Dorothea;
 Wilhelm,Jan; Chulkov,Sergey; Bani-Hashemian,Mohammad Hossein;
 Weber,Valery; Borstnik,Urban; Taillefumier,Mathieu;
 Jakobovits,Alice Shoshana; Lazzaro,Alfio; Pabst,Hans; Mueller,Tiziano;
 Schade,Robert; Guidon,Manuel; Andermatt,Samuel; Holmberg,Nico;
 Schenter,Gregory K.; Hehn,Anna; Bussy,Augustin; Belleflamme,Fabian;
 Tabacchi,Gloria; Gloess,Andreas; Lass,Michael; Bethune,Iain;
 Mundy,Christopher J.; Plessl,Christian; Watkins,Matt;
 VandeVondele,Joost; Krack,Matthias; Hutter,Juerg. 
 The Journal of Chemical Physics, 152 (19), (2020). 
 CP2K: An electronic structure and molecular dynamics software package -
 Quickstep: Efficient and accurate electronic structure calculations.
 https://doi.org/10.1063/5.0007045

 Schuett, Ole; Messmer, Peter; Hutter, Juerg; VandeVondele, Joost. 
 Electronic Structure Calculations on Graphics Processing Units, John
 Wiley & Sons, Ltd, 173-190 (2016). 
 GPU-Accelerated Sparse Matrix-Matrix Multiplication for
 Linear Scaling Density Functional Theory.
 https://doi.org/10.1002/9781118670712.ch8

 Heinecke, A; Henry, G; Hutchinson, M; Pabst, H. 
 Proceedings of Intl. Supercomputing Conference, 981-991 (2016). 
 LIBXSMM: Accelerating Small Matrix Multiplications
 by Runtime Code Generation.
 https://doi.org/10.1109/SC.2016.83

 Borstnik, U; VandeVondele, J; Weber, V; Hutter, J. 
 PARALLEL COMPUTING, 40 (5-6), 47-58 (2014). 
 Sparse matrix multiplication: The distributed block-compressed sparse
 row library.
 https://doi.org/10.1016/j.parco.2014.03.012

 Hutter, J; Iannuzzi, M; Schiffmann, F; VandeVondele, J. 
 WIREs Comput Mol Sci., 4 (1), 15-25 (2014). 
 CP2K: atomistic simulations of condensed matter systems.
 https://doi.org/10.1002/wcms.1159

 Marek, A; Blum, V; Johanni, R; Havu, V; Lang, B; Auckenthaler, T;
 Heinecke, A; Bungartz, H; Lederer, H. 
 Journal of Physics: Condensed Matter, 26 (21), (2014). 
 The ELPA library: scalable parallel eigenvalue solutions for
 electronic structure
 theory and computational science.
 https://doi.org/10.1088/0953-8984/26/21/213201

 VandeVondele, J; Hutter, J. 
 JOURNAL OF CHEMICAL PHYSICS, 127 (11), 114105 (2007). 
 Gaussian basis sets for accurate calculations on molecular systems in
 gas and condensed phases.
 https://doi.org/10.1063/1.2770708

 Kuhne, TD; Krack, M; Mohamed, FR; Parrinello, M. 
 PHYSICAL REVIEW LETTERS, 98 (6), 066401 (2007). 
 Efficient and accurate Car-Parrinello-like approach to
 Born-Oppenheimer molecular dynamics.
 https://doi.org/10.1103/PhysRevLett.98.066401

 Krack, M. 
 THEORETICAL CHEMISTRY ACCOUNTS, 114 (1-3), 145-152 (2005). 
 Pseudopotentials for H to Kr optimized for gradient-corrected
 exchange-correlation functionals.
 https://doi.org/10.1007/s00214-005-0655-y

 VandeVondele, J; Krack, M; Mohamed, F; Parrinello, M; Chassaing, T;
 Hutter, J. COMPUTER PHYSICS COMMUNICATIONS, 167 (2), 103-128 (2005). 
 QUICKSTEP: Fast and accurate density functional calculations using a
 mixed Gaussian and plane waves approach.
 https://doi.org/10.1016/j.cpc.2004.12.014

 Frigo, M; Johnson, SG. 
 PROCEEDINGS OF THE IEEE, 93 (2), 216-231 (2005). 
 The design and implementation of FFTW3.
 https://doi.org/10.1109/JPROC.2004.840301

 Kolafa, J. 
 JOURNAL OF COMPUTATIONAL CHEMISTRY, 25 (3), 335-342 (2004). 
 Time-reversible always stable predictor-corrector method for molecular dynamics of polarizable molecules.
 https://doi.org/10.1002/jcc.10385

 VandeVondele, J; Hutter, J. 
 JOURNAL OF CHEMICAL PHYSICS, 118 (10), 4365-4369 (2003). 
 An efficient orbital transformation method for electronic structure
 calculations.
 https://doi.org/10.1063/1.1543154

 Hartwigsen, C; Goedecker, S; Hutter, J. 
 PHYSICAL REVIEW B, 58 (7), 3641-3662 (1998). 
 Relativistic separable dual-space Gaussian pseudopotentials from H to Rn.
 https://doi.org/10.1103/PhysRevB.58.3641

 Lippert, G; Hutter, J; Parrinello, M. 
 MOLECULAR PHYSICS, 92 (3), 477-487 (1997). 
 A hybrid Gaussian and plane wave density functional scheme.
 https://doi.org/10.1080/002689797170220

 Perdew, JP; Burke, K; Ernzerhof, M. 
 PHYSICAL REVIEW LETTERS, 77 (18), 3865-3868 (1996). 
 Generalized gradient approximation made simple.
 https://doi.org/10.1103/PhysRevLett.77.3865

 Goedecker, S; Teter, M; Hutter, J. 
 PHYSICAL REVIEW B, 54 (3), 1703-1710 (1996). 
 Separable dual-space Gaussian pseudopotentials.
 https://doi.org/10.1103/PhysRevB.54.1703

 NOSE, S. JOURNAL OF CHEMICAL PHYSICS, 81 (1), 511-519 (1984). 
 A UNIFIED FORMULATION OF THE CONSTANT TEMPERATURE MOLECULAR-DYNAMICS
 METHODS.
 https://doi.org/10.1063/1.447334

 NOSE, S. MOLECULAR PHYSICS, 52 (2), 255-268 (1984). 
 A MOLECULAR-DYNAMICS METHOD FOR SIMULATIONS IN THE CANONICAL ENSEMBLE.
 https://doi.org/10.1080/00268978400101201


 -------------------------------------------------------------------------------
 -                                                                             -
 -                                T I M I N G                                  -
 -                                                                             -
 -------------------------------------------------------------------------------
 SUBROUTINE                       CALLS  ASD         SELF TIME        TOTAL TIME
                                MAXIMUM       AVERAGE  MAXIMUM  AVERAGE  MAXIMUM
 CP2K                                 1  1.0    0.014    0.023 2918.585 2918.589
 qs_mol_dyn_low                       1  2.0    0.030    0.054 2918.263 2918.269
 velocity_verlet                   1000  3.0    0.108    0.196 2885.506 2888.240
 qs_forces                         1001  4.0    0.066    0.086 2838.067 2838.089
 qs_energies                       1001  5.0    0.046    0.070 2528.531 2528.611
 scf_env_do_scf                    1001  6.0    0.042    0.257 2350.855 2350.884
 scf_env_do_scf_inner_loop         6981  7.0    0.149    0.800 1999.463 2001.583
 rebuild_ks_matrix                 7982  8.6    0.024    0.037 1726.685 1727.412
 qs_ks_build_kohn_sham_matrix      7982  9.6    0.874    1.020 1726.661 1727.384
 pw_transfer                     125749 12.2    6.024    6.922 1408.425 1454.615
 fft_wrap_pw1pw2                 109785 13.3    0.943    1.103 1398.285 1444.166
 qs_ks_update_qs_env               7982  8.0    0.061    0.075 1433.962 1434.414
 fft3d_ps                        109785 15.3  314.427  372.220 1271.916 1316.277
 fft_wrap_pw1pw2_200              70863 14.4   37.119   42.645 1261.375 1307.955
 qs_vxc_create                     7982 10.6    0.102    0.121 1238.106 1239.972
 mp_alltoall_z22v                109785 17.3  911.036  985.183  911.036  985.183
 xc_vxc_pw_create                  4992 11.4    8.567   10.044  916.765  918.626
 xc_rho_set_and_dset_create        7982 12.6    3.142    3.539  681.095  743.113
 qs_rho_update_rho                 7982  8.1    0.037    0.046  655.522  656.289
 calculate_rho_elec                7982  9.1    4.925    5.684  655.485  656.243
 density_rs2pw                     7982 10.1    0.312    0.352  563.866  577.694
 yz_to_x                          52897 15.7   14.222   17.424  465.259  520.024
 x_to_yz                          56888 16.8   30.821   36.985  490.820  508.181
 rs_pw_transfer                   53898 11.9    0.656    0.867  417.957  427.978
 init_scf_loop                     1001  7.0    0.020    0.027  345.812  345.831
 sum_up_and_integrate              4992 10.4    0.952    1.132  331.171  331.547
 integrate_v_rspace                4992 11.4    0.103    0.133  330.211  330.697
 xc_exc_calc                       2990 12.0    1.443    1.766  321.239  321.398
 qs_ks_update_qs_env_forces        1001  5.0    0.005    0.014  298.993  299.191
 xc_functional_eval                7982 13.6    0.058    0.070  225.365  286.550
 pbe_lda_eval                      7982 14.6  225.307  286.505  225.307  286.505
 potential_pw2rs                   4992 12.4    0.314    0.377  272.787  273.312
 dbcsr_multiply_generic           93049 12.3    2.823    3.681  242.609  245.292
 qs_scf_new_mos                    6981  8.0    0.037    0.051  222.034  222.389
 qs_scf_loop_do_ot                 6981  9.0    0.035    0.042  221.996  222.355
 mp_sum_d                        101436 12.6  188.137  220.543  188.137  220.543
 mp_waitall_1                   6165854 16.1  190.284  208.765  190.284  208.765
 ot_scf_mini                       6981 10.0    0.096    0.109  202.626  202.908
 rs_pw_transfer_RS2PW_200          8983 11.9   39.853   42.493  160.515  169.806
 mp_waitany                      449280 13.6  147.683  160.781  147.683  160.781
 init_scf_run                      1001  6.0    0.024    0.183  123.807  123.827
 scf_env_initial_rho_setup         1001  7.0    0.014    0.108  123.779  123.799
 wfi_extrapolate                   1001  8.0    0.055    0.081  121.530  121.576
 ot_mini                           6981 11.0    0.031    0.038  116.021  116.225
 grid_collocate_task_list          7982 10.1   42.809   99.495   42.809   99.495
 fft_wrap_pw1pw2_70               12974 14.0    1.550    1.871   91.496   94.015
 qs_ot_get_derivative              3991 12.0    0.028    0.035   89.381   89.546
 multiply_cannon                  93049 13.3    5.253    6.326   80.684   87.435
 mp_alltoall_d11v                191239 13.2   77.938   84.349   77.938   84.349
 make_m2s                        186098 13.3    2.138    2.623   79.519   81.600
 md_output                         1000  3.0    0.002    0.006   15.004   77.625
 rs_pw_transfer_PW2RS_200          5993 13.7   26.927   32.239   73.863   77.348
 md_write_output                   1001  4.0    1.359   31.849    3.174   73.481
 make_images                     186098 14.3    3.614    4.373   70.527   72.450
 mp_sum_l                        420571 13.4   64.970   67.870   64.970   67.870
 mp_sum_dv                        22809 13.2   63.560   67.750   63.560   67.750
 lnhc_particles                    2000  4.0    0.011    0.018   62.757   65.596
 rs_pw_transfer_RS2PW_70           7982 12.1    9.356   11.267   63.206   64.565
 prepare_preconditioner            1001  8.0    0.005    0.005   63.761   63.861
 -------------------------------------------------------------------------------

 The number of warnings for this run is : 2
 
 -------------------------------------------------------------------------------
  **** **** ******  **  PROGRAM ENDED AT                 2021-10-25 10:37:29.073
 ***** ** ***  *** **   PROGRAM RAN ON                                     node6
 **    ****   ******    PROGRAM RAN BY                                   lujunbo
 ***** **    ** ** **   PROGRAM PROCESS ID                                 29072
  **** **  *******  **  PROGRAM STOPPED IN /home/lujunbo/WORK/deepmd/c2h6/mtd/tr
                                           ain_4_sys/cp2k_md/sys_3
