       8
 i =        0, time =        0.000, E =       -14.9507520327
  C        -0.0244581334        0.0000251152        0.0000460013
  C         0.0243355694       -0.0000113681       -0.0001061379
  H         0.0003574056        0.0062573652       -0.0108398122
  H         0.0003758616       -0.0125174831       -0.0000016331
  H         0.0003876785        0.0062596437        0.0108373058
  H        -0.0003729261       -0.0062329706       -0.0107923010
  H        -0.0003550459        0.0125415347       -0.0000026210
  H        -0.0003545156       -0.0062752236        0.0108592102
       8
 i =        1, time =        0.500, E =       -14.9506148451
  C        -0.0226931187       -0.0017486106        0.0031595191
  C         0.0249010989        0.0002670083       -0.0001884111
  H         0.0000369400        0.0070419469       -0.0114172364
  H        -0.0011663049       -0.0104421465        0.0000703694
  H        -0.0006479108        0.0053975284        0.0086525446
  H        -0.0005683972       -0.0066167494       -0.0117760500
  H         0.0001320246        0.0130463930       -0.0001781403
  H        -0.0000760095       -0.0068993808        0.0116806698
       8
 i =        2, time =        1.000, E =       -14.9506287842
  C        -0.0200040558       -0.0034490345        0.0061356347
  C         0.0244309023        0.0005078908       -0.0002782589
  H        -0.0005365902        0.0073640825       -0.0112046640
  H        -0.0028948384       -0.0075814870        0.0001442677
  H        -0.0018925106        0.0041365636        0.0058116151
  H        -0.0004970204       -0.0065362395       -0.0119501845
  H         0.0008576231        0.0126608313       -0.0003497764
  H         0.0004554753       -0.0070573189        0.0116978268
       8
 i =        3, time =        1.500, E =       -14.9507439321
  C        -0.0165595028       -0.0049773360        0.0088022399
  C         0.0229605207        0.0006931006       -0.0003803103
  H        -0.0013462893        0.0072139011       -0.0102039235
  H        -0.0047268518       -0.0041231271        0.0002170093
  H        -0.0032738722        0.0025702821        0.0024875853
  H        -0.0001577463       -0.0059987680       -0.0113072635
  H         0.0017968198        0.0114094958       -0.0005188636
  H         0.0012247701       -0.0067430863        0.0109130349
       8
 i =        4, time =        2.000, E =       -14.9508843642
  C        -0.0125873590       -0.0062235534        0.0109684309
  C         0.0205704453        0.0008029719       -0.0004984600
  H        -0.0023631571        0.0066033673       -0.0084545928
  H        -0.0065593292       -0.0003247300        0.0002839339
  H        -0.0046966214        0.0008293120       -0.0010888142
  H         0.0004361261       -0.0050333744       -0.0098786266
  H         0.0029114288        0.0093625154       -0.0006863203
  H         0.0022033780       -0.0059732025        0.0093669142
       8
 i =        5, time =        2.500, E =       -14.9509731147
  C        -0.0083692278       -0.0070726578        0.0124344222
  C         0.0173902142        0.0008146638       -0.0006355855
  H        -0.0035456323        0.0055687261       -0.0060377494
  H        -0.0082727568        0.0034931404        0.0003388809
  H        -0.0060450369       -0.0009217240       -0.0046359010
  H         0.0012555090       -0.0036921875       -0.0077383768
  H         0.0041490355        0.0066413823       -0.0008523555
  H         0.0033487389       -0.0047892642        0.0071420976
       8
 i =        6, time =        3.000, E =       -14.9509575158
  C        -0.0042280761       -0.0074188887        0.0130173649
  C         0.0136009944        0.0007036765       -0.0007938289
  H        -0.0048377847        0.0041764615       -0.0030853005
  H        -0.0097380137        0.0069659326        0.0003746733
  H        -0.0071896437       -0.0024947515       -0.0078385451
  H         0.0022533127       -0.0020533758       -0.0050099909
  H         0.0054423763        0.0034238858       -0.0010159251
  H         0.0046028184       -0.0032620443        0.0043696025
       8
 i =        7, time =        3.500, E =       -14.9508271424
  C        -0.0005012242       -0.0071888141        0.0125928680
  C         0.0094407259        0.0004483608       -0.0009739104
  H        -0.0061677560        0.0025272604        0.0002148098
  H        -0.0108303275        0.0097278324        0.0003843281
  H        -0.0080024193       -0.0037016164       -0.0103847985
  H         0.0033616297       -0.0002236417       -0.0018729032
  H         0.0067098515       -0.0000540916       -0.0011743622
  H         0.0058907304       -0.0014954087        0.0012340938
       8
 i =        8, time =        4.000, E =       -14.9506187532
  C         0.0024966584       -0.0063675615        0.0111408255
  C         0.0052005024        0.0000372609       -0.0011747945
  H        -0.0074478596        0.0007569895        0.0036180827
  H        -0.0114463247        0.0114672423        0.0003626640
  H        -0.0083757894       -0.0043842206       -0.0120127015
  H         0.0044908107        0.0016625380        0.0014370781
  H         0.0078581659       -0.0035069030       -0.0013227848
  H         0.0071210212        0.0003736934       -0.0020269480
       8
 i =        9, time =        4.500, E =       -14.9504061408
  C         0.0045114416       -0.0050197810        0.0087813015
  C         0.0012113333       -0.0005224066       -0.0013928827
  H        -0.0085769733       -0.0009679746        0.0068326622
  H        -0.0115207541        0.0119823792        0.0003077270
  H        -0.0082419851       -0.0044444362       -0.0125560361
  H         0.0055325043        0.0034494178        0.0046376807
  H         0.0087888765       -0.0066203436       -0.0014539599
  H         0.0081896034        0.0021813671       -0.0051346286
       8
 i =       10, time =        5.000, E =       -14.9502776468
  C         0.0053849072       -0.0032942826        0.0057811357
  C        -0.0021834812       -0.0011980670       -0.0016214071
  H        -0.0094479107       -0.0024655505        0.0095447799
  H        -0.0110384711        0.0112217667        0.0002216791
  H        -0.0075871967       -0.0038651907       -0.0119765415
  H         0.0063679028        0.0049735680        0.0074232828
  H         0.0094083605       -0.0090859544       -0.0015584993
  H         0.0089879185        0.0037507993       -0.0077928961
       8
 i =       11, time =        5.500, E =       -14.9503076660
  C         0.0050751233       -0.0014056717        0.0025202715
  C        -0.0046689798       -0.0019309936       -0.0018501193
  H        -0.0099597735       -0.0035622289        0.0114594535
  H        -0.0100373532        0.0092947613        0.0001106210
  H        -0.0064553886       -0.0027144266       -0.0103705786
  H         0.0068817792        0.0060845136        0.0095032218
  H         0.0096401813       -0.0106450185       -0.0016256738
  H         0.0094155508        0.0049150597       -0.0097266319
       8
 i =       12, time =        6.000, E =       -14.9505305480
  C         0.0036587816        0.0004050796       -0.0005775951
  C        -0.0060056725       -0.0026436494       -0.0020659684
  H        -0.0100337612       -0.0041229650        0.0123497744
  H        -0.0086012675        0.0064464819       -0.0000165466
  H        -0.0049401369       -0.0011305860       -0.0079475777
  H         0.0069805856        0.0066685204        0.0106474864
  H         0.0094372434       -0.0111320537       -0.0016448079
  H         0.0093955755        0.0055438337       -0.0107256303
       8
 i =       13, time =        6.500, E =       -14.9509255590
  C         0.0013167804        0.0019193483       -0.0031293711
  C        -0.0060719228       -0.0032543031       -0.0022547362
  H        -0.0096285217       -0.0040785471        0.0121015889
  H        -0.0068456478        0.0030095074       -0.0001496615
  H        -0.0031681426        0.0007050408       -0.0049886397
  H         0.0066101819        0.0066693661        0.0107288604
  H         0.0087907895       -0.0105047808       -0.0016072091
  H         0.0088888961        0.0055675977       -0.0106834208
       8
 i =       14, time =        7.000, E =       -14.9514192908
  C        -0.0016923792        0.0029824934       -0.0048638458
  C        -0.0048885448       -0.0036944465       -0.0024032748
  H        -0.0087502106       -0.0034410828        0.0107387948
  H        -0.0048999930       -0.0006540372       -0.0002789480
  H        -0.0012789387        0.0025996729       -0.0017989438
  H         0.0057678510        0.0060994007        0.0097481093
  H         0.0077330275       -0.0088517073       -0.0015079782
  H         0.0079033138        0.0049914822       -0.0096184591
       8
 i =       15, time =        7.500, E =       -14.9519064760
  C        -0.0050646122        0.0035250284       -0.0056577620
  C        -0.0026175659       -0.0039225073       -0.0025016415
  H        -0.0074535240       -0.0023017368        0.0084196930
  H        -0.0028923034       -0.0042022592       -0.0003959935
  H         0.0005927427        0.0043751176        0.0013329603
  H         0.0045046630        0.0050368942        0.0078334853
  H         0.0063327743       -0.0063739611       -0.0013472370
  H         0.0064941484        0.0038939701       -0.0076701828
       8
 i =       16, time =        8.000, E =       -14.9522827716
  C        -0.0084826340        0.0035593790       -0.0055305568
  C         0.0004650582       -0.0039290725       -0.0025443103
  H        -0.0058330906       -0.0008114964        0.0054055185
  H        -0.0009377060       -0.0073465078       -0.0004943201
  H         0.0023289920        0.0058842398        0.0041617187
  H         0.0029167699        0.0036105001        0.0052145824
  H         0.0046853373       -0.0033486305       -0.0011304763
  H         0.0047560631        0.0024109009       -0.0050712511
       8
 i =       17, time =        8.500, E =       -14.9524775053
  C        -0.0116436594        0.0031585058       -0.0046082472
  C         0.0040139512       -0.0037330379       -0.0025302593
  H        -0.0040082696        0.0008479256        0.0020126509
  H         0.0008670665       -0.0098651843       -0.0005693676
  H         0.0038347461        0.0070174873        0.0064969018
  H         0.0011293691        0.0019759274        0.0021798024
  H         0.0028996035       -0.0000839503       -0.0008679395
  H         0.0028086862        0.0007106958       -0.0021052328
       8
 i =       18, time =        9.000, E =       -14.9524741861
  C        -0.0142812488        0.0024267990       -0.0030743459
  C         0.0076633217       -0.0033717207       -0.0024618508
  H        -0.0021056522        0.0024936695       -0.0014374138
  H         0.0024452262       -0.0116041123       -0.0006182609
  H         0.0050388083        0.0077018284        0.0082029116
  H        -0.0007219680        0.0002923134       -0.0009688698
  H         0.0010856516        0.0031208261       -0.0005732857
  H         0.0007803724       -0.0010318887        0.0009363542
       8
 i =       19, time =        9.500, E =       -14.9523120017
  C        -0.0161776251        0.0014747790       -0.0011264935
  C         0.0110674255       -0.0028897368       -0.0023436320
  H        -0.0002444618        0.0039646896       -0.0046562654
  H         0.0037391460       -0.0124698789       -0.0006395832
  H         0.0058923380        0.0078966889        0.0091938987
  H        -0.0025079069       -0.0012967612       -0.0039533378
  H        -0.0006549748        0.0060045145       -0.0002619564
  H        -0.0012060483       -0.0026569983        0.0037892135
       8
 i =       20, time =       10.000, E =       -14.9520693857
  C        -0.0171702572        0.0004026112        0.0010518488
  C         0.0139294833       -0.0023303129       -0.0021809607
  H         0.0014727864        0.0051337659       -0.0074103390
  H         0.0047088079       -0.0124199772       -0.0006333315
  H         0.0063663409        0.0075885974        0.0094260378
  H        -0.0041165902       -0.0026742420       -0.0065422921
  H        -0.0022354465        0.0083591500        0.0000501946
  H        -0.0030433324       -0.0040324187        0.0062366284
       8
 i =       21, time =       10.500, E =       -14.9518367974
  C        -0.0171543209       -0.0007062253        0.0033025277
  C         0.0160147306       -0.0017305865       -0.0019791545
  H         0.0029644066        0.0059107358       -0.0095266176
  H         0.0053308847       -0.0114564569       -0.0006009238
  H         0.0064500469        0.0067879077        0.0088929719
  H        -0.0054587914       -0.0037531269       -0.0085598743
  H        -0.0035860769        0.0100333430        0.0003480073
  H        -0.0046445849       -0.0050582684        0.0081165334
       8
 i =       22, time =       11.000, E =       -14.9516882780
  C        -0.0160838654       -0.0017831974        0.0054897898
  C         0.0171530034       -0.0011207940       -0.0017430873
  H         0.0041696263        0.0062396309       -0.0108902253
  H         0.0055993555       -0.0096237893       -0.0005453941
  H         0.0061514550        0.0055278564        0.0076242602
  H        -0.0064689118       -0.0044750980       -0.0098846022
  H        -0.0046547480        0.0109291066        0.0006177330
  H        -0.0059442733       -0.0056662161        0.0093197060
       8
 i =       23, time =       11.500, E =       -14.9516601190
  C        -0.0139744959       -0.0027683371        0.0074891117
  C         0.0172360322       -0.0005259595       -0.0014771713
  H         0.0050465763        0.0060934126       -0.0114348044
  H         0.0055275818       -0.0070111798       -0.0004718045
  H         0.0054991028        0.0038665992        0.0056892341
  H        -0.0071034375       -0.0048068318       -0.0104433407
  H        -0.0054061697        0.0109962723        0.0008474823
  H        -0.0068971508       -0.0058161052        0.0097835099
       8
 i =       24, time =       12.000, E =       -14.9517420016
  C        -0.0109077899       -0.0036026944        0.0091740395
  C         0.0162135101        0.0000312136       -0.0011856660
  H         0.0055700414        0.0054694287       -0.0111357321
  H         0.0051515162       -0.0037588238       -0.0003872575
  H         0.0045452796        0.0018899883        0.0032025575
  H        -0.0073389464       -0.0047363955       -0.0102048998
  H        -0.0058211281        0.0102280939        0.0010275259
  H        -0.0074766773       -0.0054924738        0.0094854365
       8
 i =       25, time =       12.500, E =       -14.9518821731
  C        -0.0070364396       -0.0042225922        0.0104067412
  C         0.0140918836        0.0005277283       -0.0008731387
  H         0.0057302254        0.0043867994       -0.0100067385
  H         0.0045328307       -0.0000633764       -0.0003008979
  H         0.0033688409       -0.0002855790        0.0003295322
  H        -0.0071710727       -0.0042711449       -0.0091767565
  H        -0.0058968604        0.0086599380        0.0011506682
  H        -0.0076743008       -0.0047028980        0.0084399610
       8
 i =       26, time =       13.000, E =       -14.9520046541
  C        -0.0025864761       -0.0045582679        0.0110376430
  C         0.0109370343        0.0009387409       -0.0005450147
  H         0.0055334794        0.0028871097       -0.0081006334
  H         0.0037599357        0.0038207416       -0.0002233393
  H         0.0020755246       -0.0025138454       -0.0027116680
  H        -0.0066150174       -0.0034377024       -0.0074054944
  H        -0.0056486804        0.0063715548        0.0012128010
  H        -0.0075002628       -0.0034787693        0.0066989513
       8
 i =       27, time =       13.500, E =       -14.9520337132
  C         0.0021482965       -0.0045391357        0.0109184871
  C         0.0068803764        0.0012379858       -0.0002080494
  H         0.0050051905        0.0010373462       -0.0055159231
  H         0.0029448947        0.0075900224       -0.0001654013
  H         0.0007929978       -0.0046254270       -0.0056585167
  H        -0.0057075751       -0.0022839992       -0.0049815185
  H        -0.0051118709        0.0034916213        0.0012136857
  H        -0.0069856514       -0.0018781883        0.0043555923
       8
 i =       28, time =       14.000, E =       -14.9519187078
  C         0.0068241484       -0.0041065682        0.0099306336
  C         0.0021254697        0.0014006556        0.0001295248
  H         0.0041939636       -0.0010657125       -0.0024055699
  H         0.0022135500        0.0109146085       -0.0001362647
  H        -0.0003406028       -0.0064424848       -0.0082256351
  H        -0.0045099063       -0.0008820786       -0.0020450229
  H        -0.0043440213        0.0002016624        0.0011577449
  H        -0.0061850663        0.0000102486        0.0015497468
       8
 i =       29, time =       14.500, E =       -14.9516521985
  C         0.0110801359       -0.0032325500        0.0080238662
  C        -0.0030499459        0.0014087773        0.0004581210
  H         0.0031753790       -0.0032923757        0.0010162935
  H         0.0016896027        0.0134766281       -0.0001413199
  H        -0.0011945082       -0.0078002852       -0.0101384198
  H        -0.0031095676        0.0006698450        0.0012086620
  H        -0.0034252178       -0.0032638249        0.0010548083
  H        -0.0051784513        0.0020643835       -0.0015280129
       8
 i =       30, time =       15.000, E =       -14.9512756611
  C         0.0145806646       -0.0019398784        0.0052568327
  C        -0.0082999318        0.0012581751        0.0007679528
  H         0.0020531267       -0.0054814430        0.0044753515
  H         0.0014735922        0.0150146575       -0.0001803455
  H        -0.0016672203       -0.0085730193       -0.0111764458
  H        -0.0016196866        0.0022483501        0.0045304687
  H        -0.0024550069       -0.0066264583        0.0009202571
  H        -0.0040697626        0.0041297510       -0.0046390655
       8
 i =       31, time =       15.500, E =       -14.9508703516
  C         0.0170612990       -0.0003162253        0.0018215566
  C        -0.0132347399        0.0009651856        0.0010506276
  H         0.0009545283       -0.0074484343        0.0076511897
  H         0.0016232803        0.0153700945       -0.0002466907
  H        -0.0017054262       -0.0086957497       -0.0112132546
  H        -0.0001724420        0.0037117709        0.0076307171
  H        -0.0015441861       -0.0095852605        0.0007739028
  H        -0.0029801368        0.0060279699       -0.0075104641
       8
 i =       32, time =       16.000, E =       -14.9505348829
  C         0.0183665946        0.0014865778       -0.0019638248
  C        -0.0174613076        0.0005700105        0.0013010355
  H         0.0000180344       -0.0090042361        0.0102103615
  H         0.0021412240        0.0145153263       -0.0003280854
  H        -0.0013144316       -0.0081762928       -0.0102404268
  H         0.0010935517        0.0049135054        0.0102056569
  H        -0.0008018271       -0.0118498661        0.0006379068
  H        -0.0020351604        0.0075732528       -0.0098609256
       8
 i =       33, time =       16.500, E =       -14.9503551830
  C         0.0184710497        0.0032720060       -0.0057001803
  C        -0.0206376542        0.0001340487        0.0015188217
  H        -0.0006270064       -0.0099811820        0.0118539186
  H         0.0029738765        0.0125581232       -0.0004089634
  H        -0.0005564212       -0.0070927230       -0.0083695761
  H         0.0020516137        0.0057216260        0.0119771139
  H        -0.0003190965       -0.0131816386        0.0005334655
  H        -0.0013468692        0.0085967033       -0.0114383319
       8
 i =       34, time =       17.000, E =       -14.9503758540
  C         0.0174794024        0.0048340579       -0.0089816034
  C        -0.0225292826       -0.0002698988        0.0017086617
  H        -0.0008843347       -0.0102627041        0.0123724438
  H         0.0040225150        0.0097200564       -0.0004735510
  H         0.0004632251       -0.0055772064       -0.0058087235
  H         0.0026075363        0.0060405800        0.0127378621
  H        -0.0001537249       -0.0134330086        0.0004770740
  H        -0.0009943034        0.0089736201       -0.0120611653
       8
 i =       35, time =       17.500, E =       -14.9505832558
  C         0.0156075329        0.0059975038       -0.0114751267
  C        -0.0230519481       -0.0005724828        0.0018790303
  H        -0.0007113655       -0.0098067827        0.0116894433
  H         0.0051625450        0.0062963722       -0.0005088216
  H         0.0016161339       -0.0037920792       -0.0028246361
  H         0.0027166440        0.0058293399        0.0123903157
  H        -0.0003196066       -0.0125743890        0.0004773792
  H        -0.0010082353        0.0086466825       -0.0116523691
       8
 i =       36, time =       18.000, E =       -14.9509080680
  C         0.0131490553        0.0066495665       -0.0129790764
  C        -0.0222861297       -0.0007228151        0.0020397663
  H        -0.0001288181       -0.0086558324        0.0098794243
  H         0.0062642817        0.0026086798       -0.0005063499
  H         0.0027718254       -0.0019051098        0.0002996853
  H         0.0023917521        0.0051098578        0.0109663701
  H        -0.0007848889       -0.0106992067        0.0005336015
  H        -0.0013653371        0.0076376312       -0.0102549361
       8
 i =       37, time =       18.500, E =       -14.9512480513
  C         0.0104346249        0.0067529390       -0.0134425816
  C        -0.0204579105       -0.0006982255        0.0021994376
  H         0.0007841894       -0.0069286705        0.0071532207
  H         0.0072104518       -0.0010344577       -0.0004628901
  H         0.0038138404       -0.0000699797        0.0033001209
  H         0.0016993169        0.0039628462        0.0086212415
  H        -0.0014791318       -0.0080068337        0.0006359155
  H        -0.0019939148        0.0060434587       -0.0080234927
       8
 i =       38, time =       19.000, E =       -14.9515029232
  C         0.0077913452        0.0063388658       -0.0129457878
  C        -0.0178928731       -0.0005057764        0.0023634283
  H         0.0019078221       -0.0047976482        0.0038150708
  H         0.0079069471       -0.0043647783       -0.0003797168
  H         0.0046489996        0.0015855045        0.0059534544
  H         0.0007451139        0.0025122731        0.0056037607
  H        -0.0023070253       -0.0047674346        0.0007676406
  H        -0.0027892823        0.0040185007       -0.0051950905
       8
 i =       39, time =       19.500, E =       -14.9516076838
  C         0.0055091225        0.0054866255       -0.0116558216
  C        -0.0149579949       -0.0001761417        0.0025332405
  H         0.0031052235       -0.0024590636        0.0002077615
  H         0.0082869949       -0.0071691822       -0.0002613879
  H         0.0052104170        0.0029635810        0.0080872097
  H        -0.0003454339        0.0009039773        0.0022128395
  H        -0.0031643507       -0.0012807762        0.0009083187
  H        -0.0036333352        0.0017485379       -0.0020485966
       8
 i =       40, time =       20.000, E =       -14.9515518249
  C         0.0038178670        0.0042990723       -0.0097776646
  C        -0.0120071249        0.0002466053        0.0027069681
  H         0.0042447195       -0.0001048333       -0.0033374107
  H         0.0083106908       -0.0092912545       -0.0001143273
  H         0.0054562422        0.0039958955        0.0095806658
  H        -0.0014467345       -0.0007159526       -0.0012468118
  H        -0.0039521884        0.0021618966        0.0010368978
  H        -0.0044132211       -0.0005759644        0.0011357047
       8
 i =       41, time =       20.500, E =       -14.9513786489
  C         0.0028780500        0.0028822960       -0.0075151250
  C        -0.0093431469        0.0007152643        0.0028807007
  H         0.0052151958        0.0020966395       -0.0065361035
  H         0.0079617380       -0.0106274189        0.0000543397
  H         0.0053661646        0.0046401261        0.0103590161
  H        -0.0024475364       -0.0022172302       -0.0044989023
  H        -0.0045866755        0.0053042049        0.0011341333
  H        -0.0050338895       -0.0027803924        0.0041061169
       8
 i =       42, time =       21.000, E =       -14.9511670763
  C         0.0027794257        0.0013339527       -0.0050503659
  C        -0.0071983265        0.0011866176        0.0030491797
  H         0.0059330290        0.0040102867       -0.0091667177
  H         0.0072440189       -0.0111218976        0.0002374899
  H         0.0049386450        0.0048768239        0.0103889044
  H        -0.0032587445       -0.0034943821       -0.0073155233
  H        -0.0050036834        0.0079391883        0.0011840881
  H        -0.0054247261       -0.0047186801        0.0066570090
       8
 i =       43, time =       21.500, E =       -14.9510040531
  C         0.0035460362       -0.0002601068       -0.0025390365
  C        -0.0057309983        0.0016249506        0.0032068943
  H         0.0063425911        0.0055357827       -0.0110718954
  H         0.0061790571       -0.0107630822        0.0004282521
  H         0.0041885614        0.0047075732        0.0096748383
  H        -0.0038157559       -0.0044696740       -0.0095245319
  H        -0.0051598693        0.0099133837        0.0011747695
  H        -0.0055403172       -0.0062783216        0.0086345085
       8
 i =       44, time =       22.000, E =       -14.9509570811
  C         0.0051425874       -0.0018228027       -0.0001175658
  C        -0.0050323417        0.0020021989        0.0033484705
  H         0.0064126807        0.0066040336       -0.0121511102
  H         0.0048046805       -0.0095830058        0.0006201443
  H         0.0031468362        0.0041550661        0.0082589161
  H        -0.0040767127       -0.0050914544       -0.0110071775
  H        -0.0050311317        0.0111246457        0.0010980962
  H        -0.0053577982       -0.0073792030        0.0099337672
       8
 i =       45, time =       22.500, E =       -14.9510546230
  C         0.0074795749       -0.0032796142        0.0020846300
  C        -0.0051364862        0.0022962185        0.0034688684
  H         0.0061318536        0.0071722302       -0.0123513203
  H         0.0031750670       -0.0076606585        0.0008068209
  H         0.0018612817        0.0032649543        0.0062236324
  H        -0.0040194805       -0.0053310108       -0.0116928334
  H        -0.0046104573        0.0115175513        0.0009497982
  H        -0.0048732777       -0.0079708908        0.0104937355
       8
 i =       46, time =       23.000, E =       -14.9512789137
  C         0.0104164686       -0.0045523959        0.0039338291
  C        -0.0060295403        0.0024883221        0.0035632642
  H         0.0055046538        0.0072201738       -0.0116597085
  H         0.0013613305       -0.0051271121        0.0009818533
  H         0.0003978044        0.0021084775        0.0036961850
  H        -0.0036387487       -0.0051796407       -0.0115527466
  H        -0.0039061929        0.0110799864        0.0007293066
  H        -0.0040983624       -0.0080294694        0.0102913130
       8
 i =       47, time =       23.500, E =       -14.9515720077
  C         0.0137641533       -0.0055561763        0.0052872476
  C        -0.0076545770        0.0025614300        0.0036268630
  H         0.0045499509        0.0067494607       -0.0101017790
  H        -0.0005492907       -0.0021695856        0.0011387190
  H        -0.0011590943        0.0007839711        0.0008507557
  H        -0.0029445784       -0.0046471410       -0.0105977599
  H        -0.0029414647        0.0098424756        0.0004399406
  H        -0.0030581971       -0.0075563026        0.0093394122
       8
 i =       48, time =       24.000, E =       -14.9518529031
  C         0.0172891219       -0.0062016161        0.0059993268
  C        -0.0099120338        0.0024995531        0.0036547338
  H         0.0033014602        0.0057863238       -0.0077451184
  H        -0.0024557334        0.0009699750        0.0012708754
  H        -0.0027085036       -0.0005848428       -0.0020939080
  H        -0.0019627519       -0.0037623741       -0.0088799180
  H        -0.0017539403        0.0078807088        0.0000893538
  H        -0.0017909895       -0.0065796152        0.0076884308
       8
 i =       49, time =       24.500, E =       -14.9520411448
  C         0.0207223513       -0.0064050949        0.0059417243
  C        -0.0126565079        0.0022892015        0.0036416445
  H         0.0018103269        0.0043873908       -0.0047082872
  H        -0.0042491826        0.0040068004        0.0013723149
  H        -0.0041382752       -0.0018563967       -0.0048866011
  H        -0.0007366188       -0.0025753287       -0.0064972368
  H        -0.0003973346        0.0053198539       -0.0003097824
  H        -0.0003481538       -0.0051580053        0.0054306328
       8
 i =       50, time =       25.000, E =       -14.9520808830
  C         0.0237750008       -0.0061065842        0.0050362607
  C        -0.0156923473        0.0019230573        0.0035820141
  H         0.0001484922        0.0026467866       -0.0011710433
  H        -0.0058223371        0.0066382718        0.0014381338
  H        -0.0053360248       -0.0028855871       -0.0072666338
  H         0.0006702077       -0.0011599647       -0.0036003326