       8
 i =        0, time =        0.000, E =       -14.9507520327
  C         0.0000218817        0.0000370329       -0.0000080399
  C        -0.0000569215        0.0000153253       -0.0000505175
  H         0.0005559446       -0.0003400560        0.0002488641
  H         0.0005163265       -0.0001362968        0.0001225295
  H         0.0001623331       -0.0001248424        0.0004371924
  H        -0.0000166064       -0.0001207439        0.0002893650
  H        -0.0004515628       -0.0002549834       -0.0001748800
  H        -0.0003488975        0.0003530180       -0.0002252962
       8
 i =        1, time =        0.500, E =       -14.9506148451
  C        -0.0000003997        0.0000361401       -0.0000065110
  C        -0.0000335810        0.0000154127       -0.0000505472
  H         0.0005569587       -0.0002645918        0.0001232635
  H         0.0005107689       -0.0002650127        0.0001226508
  H         0.0001605200       -0.0000590706        0.0005457611
  H        -0.0000218599       -0.0001926857        0.0001619275
  H        -0.0004518399       -0.0001106533       -0.0001755177
  H        -0.0003505624        0.0002782266       -0.0000981573
       8
 i =        2, time =        1.000, E =       -14.9506287842
  C        -0.0000205327        0.0000336112       -0.0000021138
  C        -0.0000102460        0.0000157449       -0.0000506582
  H         0.0005529499       -0.0001830732       -0.0000041156
  H         0.0004868476       -0.0003657165        0.0001235924
  H         0.0001458990       -0.0000053709        0.0006258587
  H        -0.0000277993       -0.0002661772        0.0000282598
  H        -0.0004453045        0.0000340351       -0.0001781055
  H        -0.0003476741        0.0001992034        0.0000334190
       8
 i =        3, time =        1.500, E =       -14.9507439321
  C        -0.0000377301        0.0000295654        0.0000049347
  C         0.0000121235        0.0000162773       -0.0000508598
  H         0.0005411801       -0.0001007649       -0.0001244026
  H         0.0004429734       -0.0004306983        0.0001253565
  H         0.0001165550        0.0000323268        0.0006711455
  H        -0.0000314187       -0.0003360392       -0.0001024856
  H        -0.0004294309        0.0001692141       -0.0001826032
  H        -0.0003374846        0.0001212296        0.0001603985
       8
 i =        4, time =        2.000, E =       -14.9508843642
  C        -0.0000513932        0.0000242200        0.0000142470
  C         0.0000326245        0.0000169478       -0.0000511647
  H         0.0005191717       -0.0000229083       -0.0002289777
  H         0.0003786024       -0.0004547639        0.0001279014
  H         0.0000715176        0.0000513596        0.0006775606
  H        -0.0000297868       -0.0003973059       -0.0002213094
  H        -0.0004020507        0.0002855686       -0.0001889821
  H        -0.0003174953        0.0000495154        0.0002740071
       8
 i =        5, time =        2.500, E =       -14.9509731147
  C        -0.0000611642        0.0000178978        0.0000252518
  C         0.0000504543        0.0000176740       -0.0000515889
  H         0.0004848485        0.0000455364       -0.0003099157
  H         0.0002944428       -0.0004359781        0.0001311247
  H         0.0000110056        0.0000507294        0.0006439296
  H        -0.0000202172       -0.0004454766       -0.0003198214
  H        -0.0003615093        0.0003748778       -0.0001972197
  H        -0.0002856120       -0.0000110660        0.0003661794
       8
 i =        6, time =        3.000, E =       -14.9509575158
  C        -0.0000669715        0.0000110255        0.0000371986
  C         0.0000649584        0.0000183515       -0.0000521509
  H         0.0004366890        0.0001001954       -0.0003605046
  H         0.0001926010       -0.0003762617        0.0001348493
  H        -0.0000633837        0.0000314221        0.0005724370
  H        -0.0000004572       -0.0004767930       -0.0003907594
  H        -0.0003068300        0.0004306199       -0.0002072890
  H        -0.0002403119       -0.0000562821        0.0004300679
       8
 i =        7, time =        3.500, E =       -14.9508271424
  C        -0.0000690554        0.0000041133        0.0000491937
  C         0.0000756818        0.0000188547       -0.0000528706
  H         0.0003738961        0.0001376446       -0.0003758467
  H         0.0000766081       -0.0002816388        0.0001388197
  H        -0.0001486088       -0.0000034636        0.0004687913
  H         0.0000310938       -0.0004885466       -0.0004285810
  H        -0.0002378774        0.0004486145       -0.0002191436
  H        -0.0001808245       -0.0000828911        0.0004606159
       8
 i =        8, time =        4.000, E =       -14.9506187532
  C        -0.0000679635       -0.0000022881        0.0000602777
  C         0.0000824203        0.0000190425       -0.0000537682
  H         0.0002965733        0.0001557977       -0.0003534884
  H        -0.0000487307       -0.0001619292        0.0001427136
  H        -0.0002403123       -0.0000488899        0.0003419162
  H         0.0000751483       -0.0004793936       -0.0004300930
  H        -0.0001555005        0.0004276249       -0.0002326960
  H        -0.0001073169       -0.0000890128        0.0004551541
       8
 i =        9, time =        4.500, E =       -14.9504061408
  C        -0.0000645109       -0.0000076528        0.0000695407
  C         0.0000852644        0.0000187723       -0.0000548620
  H         0.0002058846        0.0001542731       -0.0002939964
  H        -0.0001776764       -0.0000298137        0.0001461699
  H        -0.0003331643       -0.0000983916        0.0002031207
  H         0.0001313056       -0.0004496263       -0.0003950230
  H        -0.0000616226        0.0003697893       -0.0002477920
  H        -0.0000210532       -0.0000744622        0.0004139227
       8
 i =       10, time =        5.000, E =       -14.9502776468
  C        -0.0000597053       -0.0000115568        0.0000762578
  C         0.0000846223        0.0000179205       -0.0000561651
  H         0.0001041581        0.0001346475       -0.0002013372
  H        -0.0003040550        0.0001006359        0.0001488297
  H        -0.0004213913       -0.0001448718        0.0000648331
  H         0.0001978917       -0.0004013282       -0.0003264006
  H         0.0000407615        0.0002807379       -0.0002641852
  H         0.0000755136       -0.0000409686        0.0003403903
       8
 i =       11, time =        5.500, E =       -14.9503076660
  C        -0.0000546458       -0.0000137485        0.0000800102
  C         0.0000812110        0.0000164069       -0.0000576827
  H        -0.0000051177        0.0001004903       -0.0000828835
  H        -0.0004218364        0.0002157071        0.0001503805
  H        -0.0004994026       -0.0001815355       -0.0000608762
  H         0.0002719227       -0.0003383380       -0.0002305942
  H         0.0001477111        0.0001692700       -0.0002815158
  H         0.0001787646        0.0000078131        0.0002412219
       8
 i =       12, time =        6.000, E =       -14.9505305480
  C        -0.0000504125       -0.0000141915        0.0000807584
  C         0.0000760067        0.0000142152       -0.0000594083
  H        -0.0001174548        0.0000570947        0.0000510795
  H        -0.0005256851        0.0003037076        0.0001505934
  H        -0.0005623880       -0.0002027604       -0.0001636819
  H         0.0003492473       -0.0002659658       -0.0001168792
  H         0.0002546010        0.0000465448       -0.0002993023
  H         0.0002840930        0.0000665674        0.0001257901
       8
 i =       13, time =        6.500, E =       -14.9509255590
  C        -0.0000479611       -0.0000130658        0.0000788419
  C         0.0000701529        0.0000114043       -0.0000613220
  H        -0.0002276968        0.0000108894        0.0001883709
  H        -0.0006113887        0.0003562097        0.0001493454
  H        -0.0006067776       -0.0002047288       -0.0002360322
  H         0.0004248888       -0.0001904625        0.0000034832
  H         0.0003564977       -0.0000751347       -0.0003169520
  H         0.0003862453        0.0001288663        0.0000052253
       8
 i =       14, time =        7.000, E =       -14.9514192908
  C        -0.0000480378       -0.0000107269        0.0000749075
  C         0.0000648374        0.0000081036       -0.0000633901
  H        -0.0003304937       -0.0000313876        0.0003163210
  H        -0.0006761097        0.0003686997        0.0001466243
  H        -0.0006304962       -0.0001857303       -0.0002736788
  H         0.0004935537       -0.0001183136        0.0001185399
  H         0.0004486018       -0.0001837452       -0.0003337933
  H         0.0004797952        0.0001879300       -0.0001088658
       8
 i =       15, time =        7.500, E =       -14.9519064760
  C        -0.0000511217       -0.0000076354        0.0000697864
  C         0.0000611598        0.0000044946       -0.0000655680
  H        -0.0004208396       -0.0000635901        0.0004233000
  H        -0.0007184549        0.0003406264        0.0001425194
  H        -0.0006330089       -0.0001461429       -0.0002757142
  H         0.0005502243       -0.0000554860        0.0002170796
  H         0.0005266829       -0.0002689078       -0.0003491259
  H         0.0005596735        0.0002374577       -0.0002057799
       8
 i =       16, time =        8.000, E =       -14.9522827716
  C        -0.0000573976       -0.0000042781        0.0000643576
  C         0.0000600106        0.0000007824       -0.0000678035
  H        -0.0004945719       -0.0000809434        0.0005000533
  H        -0.0007383988        0.0002749880        0.0001372041
  H        -0.0006152031       -0.0000881762       -0.0002442353
  H         0.0005907171       -0.0000067756        0.0002899187
  H         0.0005874366       -0.0003229478       -0.0003622818
  H         0.0006216589        0.0002723629       -0.0002769209
       8
 i =       17, time =        8.500, E =       -14.9524775053
  C        -0.0000667566       -0.0000011008        0.0000594303
  C         0.0000619857       -0.0000028322       -0.0000700417
  H        -0.0005487395       -0.0000805542        0.0005405934
  H        -0.0007371126        0.0001776553        0.0001309150
  H        -0.0005791692       -0.0000154853       -0.0001837919
  H         0.0006121044        0.0000246278        0.0003308041
  H         0.0006287145       -0.0003414980       -0.0003726844
  H         0.0006627454        0.0002892811       -0.0003166116
       8
 i =       18, time =        9.000, E =       -14.9524741861
  C        -0.0000788214        0.0000015353        0.0000556669
  C         0.0000673443       -0.0000061753       -0.0000722291
  H        -0.0005817863       -0.0000615887        0.0005425412
  H        -0.0007167522        0.0000566114        0.0001239315
  H        -0.0005279388        0.0000672497       -0.0001007667
  H         0.0006129394        0.0000373131        0.0003368218
  H         0.0006496117       -0.0003236247       -0.0003798965
  H         0.0006813359        0.0002867895       -0.0003224268
       8
 i =       19, time =        9.500, E =       -14.9523120017
  C        -0.0000929872        0.0000033710        0.0000535488
  C         0.0000760089       -0.0000091121       -0.0000743163
  H        -0.0005935522       -0.0000251529        0.0005069661
  H        -0.0006802372       -0.0000787781        0.0001165587
  H        -0.0004652225        0.0001547173       -0.0000027811
  H         0.0005932795        0.0000315778        0.0003083364
  H         0.0006504265       -0.0002715583       -0.0003836504
  H         0.0006772612        0.0002653565       -0.0002950816
       8
 i =       20, time =       10.000, E =       -14.9520693857
  C        -0.0001084714        0.0000042474        0.0000533767
  C         0.0000875994       -0.0000115499       -0.0000762595
  H        -0.0005851345        0.0000260251        0.0004378820
  H        -0.0006310392       -0.0002184042        0.0001091097
  H        -0.0003951660        0.0002413158        0.0001018300
  H         0.0005545477        0.0000091886        0.0002485854
  H         0.0006325261       -0.0001901713       -0.0003838595
  H         0.0006516578        0.0002270981       -0.0002380037
       8
 i =       21, time =       10.500, E =       -14.9518367974
  C        -0.0001243682        0.0000040931        0.0000552893
  C         0.0001014860       -0.0000134340       -0.0000780203
  H        -0.0005586707        0.0000880010        0.0003415856
  H        -0.0005729819       -0.0003519602        0.0001018894
  H        -0.0003221298        0.0003214442        0.0002044725
  H         0.0004992996       -0.0000269423        0.0001630935
  H         0.0005981610       -0.0000863489       -0.0003806141
  H         0.0006067577        0.0001754331       -0.0001567473
       8
 i =       22, time =       11.000, E =       -14.9516882780
  C        -0.0001397036        0.0000029086        0.0000592858
  C         0.0001168496       -0.0000147421       -0.0000795657
  H        -0.0005170957        0.0001560196        0.0002259769
  H        -0.0005100432       -0.0004694339        0.0000951765
  H        -0.0002504761        0.0003897653        0.0002967093
  H         0.0004309554       -0.0000730921        0.0000590438
  H         0.0005502626        0.0000316396       -0.0003741674
  H         0.0005456461        0.0001147174       -0.0000583783
       8
 i =       23, time =       11.500, E =       -14.9516601190
  C        -0.0001534918        0.0000007550        0.0000652422
  C         0.0001327418       -0.0000154781       -0.0000808664
  H        -0.0004639121        0.0002248727        0.0000999515
  H        -0.0004461456       -0.0005615964        0.0000892025
  H        -0.0001843462        0.0004414727        0.0003706857
  H         0.0003535371       -0.0001250325       -0.0000553073
  H         0.0004922434        0.0001547163       -0.0003649145
  H         0.0004720203        0.0000499035        0.0000490911
       8
 i =       24, time =       12.000, E =       -14.9517420016
  C        -0.0001647951       -0.0000022504        0.0000729161
  C         0.0001481413       -0.0000156684       -0.0000818971
  H        -0.0004029877        0.0002891997       -0.0000271104
  H        -0.0003849196       -0.0006205347        0.0000841292
  H        -0.0001274125        0.0004725830        0.0004196037
  H         0.0002714289       -0.0001782920       -0.0001711400
  H         0.0004278099        0.0002735092       -0.0003533688
  H         0.0003899682       -0.0000137582        0.0001571933
       8
 i =       25, time =       12.500, E =       -14.9518821731
  C        -0.0001727882       -0.0000059328        0.0000819402
  C         0.0001620084       -0.0000153606       -0.0000826362
  H        -0.0003383743        0.0003437461       -0.0001457934
  H        -0.0003294340       -0.0006402512        0.0000800261
  H        -0.0000825981        0.0004802599        0.0004382583
  H         0.0001891576       -0.0002283846       -0.0002795254
  H         0.0003607800        0.0003788326       -0.0003401353
  H         0.0003037617       -0.0000709879        0.0002574381
       8
 i =       26, time =       13.000, E =       -14.9520046541
  C        -0.0001768265       -0.0000100548        0.0000918126
  C         0.0001733398       -0.0000146251       -0.0000830666
  H        -0.0002741320        0.0003836132       -0.0002470817
  H        -0.0002819050       -0.0006173021        0.0000768510
  H        -0.0000517794        0.0004631524        0.0004236157
  H         0.0001111770       -0.0002710270       -0.0003718619
  H         0.0002948901        0.0004621726       -0.0003258801
  H         0.0002176520       -0.0001167394        0.0003417311
       8
 i =       27, time =       13.500, E =       -14.9520337132
  C        -0.0001765131       -0.0000143134        0.0001018918
  C         0.0001812284       -0.0000135561       -0.0000831773
  H        -0.0002141324        0.0004045278       -0.0003228362
  H        -0.0002434165       -0.0005513950        0.0000744415
  H        -0.0000355153        0.0004216906        0.0003753564
  H         0.0000416368       -0.0003023675       -0.0004403435
  H         0.0002335832        0.0005162127       -0.0003112927
  H         0.0001356477       -0.0001464850        0.0004028170
       8
 i =       28, time =       14.000, E =       -14.9519187078
  C        -0.0001717541       -0.0000183455        0.0001114132
  C         0.0001849294       -0.0000122717       -0.0000829647
  H        -0.0001618217        0.0004031544       -0.0003663592
  H        -0.0002137129       -0.0004458068        0.0000725237
  H        -0.0000328678        0.0003582608        0.0002962480
  H        -0.0000158758       -0.0003192426       -0.0004784872
  H         0.0001797721        0.0005354071       -0.0002970390
  H         0.0000612658       -0.0001565368        0.0004347760
       8
 i =       29, time =       14.500, E =       -14.9516521985
  C        -0.0001627907       -0.0000217487        0.0001195355
  C         0.0001839289       -0.0000109100       -0.0000824344
  H        -0.0001199378        0.0003774462       -0.0003730433
  H        -0.0001911383       -0.0003074527        0.0000707432
  H        -0.0000413893        0.0002771727        0.0001922021
  H        -0.0000586219       -0.0003194597       -0.0004817234
  H         0.0001355874        0.0005165736       -0.0002837052
  H        -0.0000027442       -0.0001444067        0.0004335704
       8
 i =       30, time =       15.000, E =       -14.9512756611
  C        -0.0001501932       -0.0000241194        0.0001254258
  C         0.0001780112       -0.0000096193       -0.0000816018
  H        -0.0000902020        0.0003270029       -0.0003410476
  H        -0.0001727821       -0.0001464848        0.0000687181
  H        -0.0000573340        0.0001843576        0.0000718958
  H        -0.0000850021       -0.0003020831       -0.0004480020
  H         0.0001021429        0.0004594300       -0.0002717360
  H        -0.0000546772       -0.0001091719        0.0003975942
       8
 i =       31, time =       15.500, E =       -14.9508703516
  C        -0.0001348135       -0.0000251080        0.0001283729
  C         0.0001673091       -0.0000085415       -0.0000804915
  H        -0.0000730300        0.0002533695       -0.0002718825
  H        -0.0001548529        0.0000246215        0.0000661065
  H        -0.0000760981        0.0000867979       -0.0000540760
  H        -0.0000948036       -0.0002676717       -0.0003783104
  H         0.0000793651        0.0003669537       -0.0002613779
  H        -0.0000941024       -0.0000517837        0.0003281246
       8
 i =       32, time =       16.000, E =       -14.9505348829
  C        -0.0001176985       -0.0000244787        0.0001279090
  C         0.0001523239       -0.0000077916       -0.0000791343
  H        -0.0000673420        0.0001601813       -0.0001707242
  H        -0.0001332312        0.0001923943        0.0000626740
  H        -0.0000928237       -0.0000082308       -0.0001744015
  H        -0.0000893372       -0.0002184011       -0.0002769645
  H         0.0000659436        0.0002454309       -0.0002526406
  H        -0.0001219795        0.0000247664        0.0002295453
       8
 i =       33, time =       16.500, E =       -14.9503551830
  C        -0.0000999753       -0.0000221609        0.0001239053
  C         0.0001339002       -0.0000074359       -0.0000775630
  H        -0.0000705562        0.0000530593       -0.0000462774
  H        -0.0001040945        0.0003438638        0.0000583425
  H        -0.0001030473       -0.0000939642       -0.0002783911
  H        -0.0000713990       -0.0001580004       -0.0001515272
  H         0.0000594461        0.0001040901       -0.0002452885
  H        -0.0001406014        0.0001155094        0.0001092154
       8
 i =       34, time =       17.000, E =       -14.9503758540
  C        -0.0000827284       -0.0000182732        0.0001166111
  C         0.0001131494       -0.0000074774       -0.0000758076
  H        -0.0000788319       -0.0000608033        0.0000899328
  H        -0.0000644841        0.0004679544        0.0000532097
  H        -0.0001032597       -0.0001648429       -0.0003571852
  H        -0.0000450147       -0.0000914596       -0.0000122549
  H         0.0000566110       -0.0000457088       -0.0002388723
  H        -0.0001533266        0.0002138468       -0.0000231023
       8
 i =       35, time =       17.500, E =       -14.9505832558
  C        -0.0000668864       -0.0000131133        0.0001066215
  C         0.0000913275       -0.0000078523       -0.0000738909
  H        -0.0000875599       -0.0001733476        0.0002248147
  H        -0.0000127020        0.0005565218        0.0000475336
  H        -0.0000912731       -0.0002169772       -0.0004046135
  H        -0.0000149762       -0.0000245170        0.0001289202
  H         0.0000537840       -0.0001916497       -0.0002328004
  H        -0.0001641179        0.0003121791       -0.0001562265
       8
 i =       36, time =       18.000, E =       -14.9509080680
  C        -0.0000531345       -0.0000071133        0.0000947806
  C         0.0000696877       -0.0000084397       -0.0000718260
  H        -0.0000920211       -0.0002765381        0.0003453009
  H         0.0000515178        0.0006049004        0.0000416915
  H        -0.0000663579       -0.0002483381       -0.0004176037
  H         0.0000137609        0.0000369988        0.0002597308
  H         0.0000474218       -0.0003218088       -0.0002264361
  H        -0.0001769664        0.0004027255       -0.0002788157
       8
 i =       37, time =       18.500, E =       -14.9512480513
  C        -0.0000418621       -0.0000007749        0.0000820483
  C         0.0000493352       -0.0000090848       -0.0000696172
  H        -0.0000880701       -0.0003632628        0.0004399579
  H         0.0001270522        0.0006119684        0.0000361251
  H        -0.0000291726       -0.0002587035       -0.0003961593
  H         0.0000366994        0.0000878502        0.0003689896
  H         0.0000345660       -0.0004259339       -0.0002192030
  H        -0.0001953158        0.0004783889       -0.0003806650
       8
 i =       38, time =       19.000, E =       -14.9515029232
  C        -0.0000331480        0.0000053984        0.0000693687
  C         0.0000311131       -0.0000096256       -0.0000672618
  H        -0.0000726908       -0.0004280600        0.0005002719
  H         0.0002115906        0.0005798436        0.0000312862
  H         0.0000184474       -0.0002494309       -0.0003430196
  H         0.0000503215        0.0001239616        0.0004478045
  H         0.0000131983       -0.0004964330       -0.0002106753
  H        -0.0002216082        0.0005334994       -0.0004537928
       8
 i =       39, time =       19.500, E =       -14.9516076838
  C        -0.0000267806        0.0000109564        0.0000575673
  C         0.0000155365       -0.0000099185       -0.0000647548
  H        -0.0000443187       -0.0004675531        0.0005213876
  H         0.0003019222        0.0005133451        0.0000275927
  H         0.0000737708       -0.0002231420       -0.0002631420
  H         0.0000524176        0.0001427832        0.0004903840
  H        -0.0000175721       -0.0005289360       -0.0002006387
  H        -0.0002570270        0.0005643135       -0.0004931367
       8
 i =       40, time =       20.000, E =       -14.9515518249
  C        -0.0000223045        0.0000155363        0.0000472929
  C         0.0000027800       -0.0000098558       -0.0000620917
  H        -0.0000029042       -0.0004805594        0.0005022545
  H         0.0003942459        0.0004193611        0.0000254002
  H         0.0001334621       -0.0001833874       -0.0001631223
  H         0.0000421952        0.0001434135        0.0004943475
  H        -0.0000574911       -0.0005224098       -0.0001891148
  H        -0.0003014555        0.0005692167       -0.0004967936
       8
 i =       41, time =       20.500, E =       -14.9513786489
  C        -0.0000190814        0.0000188746        0.0000389999
  C        -0.0000072917       -0.0000093728       -0.0000592715
  H         0.0000502374       -0.0004679293        0.0004452905
  H         0.0004844584        0.0003062261        0.0000249870
  H         0.0001938469       -0.0001343314       -0.0000506386
  H         0.0000201958        0.0001265083        0.0004605916
  H        -0.0001052782       -0.0004789068       -0.0001763530
  H        -0.0003536114        0.0005486561       -0.0004658605
       8
 i =       42, time =       21.000, E =       -14.9511670763
  C        -0.0000163573        0.0000208050        0.0000329597
  C        -0.0000150666       -0.0000084481       -0.0000562979
  H         0.0001127014       -0.0004322194        0.0003557523
  H         0.0005684039        0.0001831460        0.0000265508
  H         0.0002511411       -0.0000804736        0.0000660470
  H        -0.0000119150        0.0000940473        0.0003928470
  H        -0.0001588264       -0.0004030810       -0.0001628012
  H        -0.0004112882        0.0005048839       -0.0004040047
       8
 i =       43, time =       21.500, E =       -14.9510040531
  C        -0.0000133265        0.0000212486        0.0000292833
  C        -0.0000211154       -0.0000070974       -0.0000531797
  H         0.0001813098       -0.0003773017        0.0002410087
  H         0.0006420855        0.0000596748        0.0000302101
  H         0.0003016493       -0.0000263994        0.0001785389
  H        -0.0000516140        0.0000490330        0.0002970802
  H        -0.0002154333       -0.0003015965       -0.0001490624
  H        -0.0004716368        0.0004415981       -0.0003169019
       8
 i =       44, time =       22.000, E =       -14.9509570811
  C        -0.0000091912        0.0000202031        0.0000279433
  C        -0.0000261255       -0.0000053665       -0.0000499304
  H         0.0002524085       -0.0003079854        0.0001098503
  H         0.0007018530       -0.0000547813        0.0000360081
  H         0.0003419457        0.0000234583        0.0002787318
  H        -0.0000957887       -0.0000048157        0.0001808698
  H        -0.0002720271       -0.0001825287       -0.0001358496
  H        -0.0005314343        0.0003635646       -0.0002116601
       8
 i =       45, time =       22.500, E =       -14.9510546230
  C        -0.0000032143        0.0000177378        0.0000287872
  C        -0.0000308407       -0.0000033244       -0.0000465681
  H         0.0003221150       -0.0002296897       -0.0000281004
  H         0.0007445803       -0.0001514708        0.0000439156
  H         0.0003690553        0.0000650645        0.0003592451
  H        -0.0001409771       -0.0000633414        0.0000528310
  H        -0.0003253701       -0.0000548097       -0.0001239421
  H        -0.0005873148        0.0002762635       -0.0000962935
       8
 i =       46, time =       23.000, E =       -14.9512789137
  C         0.0000052307        0.0000139934        0.0000315385
  C        -0.0000360123       -0.0000010593       -0.0000431151
  H         0.0003865174       -0.0001481690       -0.0001628807
  H         0.0007678482       -0.0002228464        0.0000538316
  H         0.0003806477        0.0000950524        0.0004138949
  H        -0.0001835726       -0.0001221888       -0.0000778903
  H        -0.0003722393        0.0000722776       -0.0001141428
  H        -0.0006359615        0.0001855729        0.0000207368
       8
 i =       47, time =       23.500, E =       -14.9515720077
  C         0.0000166129        0.0000091871        0.0000357912
  C        -0.0000423554        0.0000013241       -0.0000395979
  H         0.0004418427       -0.0000692650       -0.0002846250
  H         0.0007701273       -0.0002631677        0.0000655823
  H         0.0003752405        0.0001110160        0.0004382039
  H        -0.0002200038       -0.0001770200       -0.0002020722
  H        -0.0004095945        0.0001895786       -0.0001072363
  H        -0.0006742680        0.0000974804        0.0001309356
       8
 i =       48, time =       24.000, E =       -14.9518529031
  C         0.0000312003        0.0000036176        0.0000410042
  C        -0.0000505088        0.0000037056       -0.0000360474
  H         0.0004846211        0.0000013514       -0.0003840145
  H         0.0007509476       -0.0002691191        0.0000789202
  H         0.0003523961        0.0001118027        0.0004299119
  H        -0.0002469092       -0.0002237245       -0.0003108680
  H        -0.0004347430        0.0002885573       -0.0001039429
  H        -0.0006994892        0.0000177923        0.0002261841
       8
 i =       49, time =       24.500, E =       -14.9520411448
  C         0.0000490225       -0.0000023354        0.0000465087
  C        -0.0000609938        0.0000059516       -0.0000324994
  H         0.0005118682        0.0000584887       -0.0004528002
  H         0.0007110210       -0.0002403539        0.0000935276
  H         0.0003128764        0.0000977536        0.0003894070
  H        -0.0002613247       -0.0002586450       -0.0003962960
  H        -0.0004455128        0.0003618277       -0.0001048671
  H        -0.0007093913       -0.0000481866        0.0002991851
       8
 i =       50, time =       25.000, E =       -14.9520808830
  C         0.0000698455       -0.0000082255        0.0000515406
  C        -0.0000741689        0.0000079187       -0.0000289952
  H         0.0005213028        0.0000978167       -0.0004844350
  H         0.0006522782       -0.0001798306        0.0001090260
  H         0.0002587067        0.0000708213        0.0003199569
  H        -0.0002608977       -0.0002788323       -0.0004517954