       8
 i =        0, time =        0.000, E =       -14.9507520327
  C        -2.7700694500        1.2735381400        0.0000000000
  C        -1.2698194500        1.2735381400        0.0000000000
  H        -3.1651834500        0.7511220400        0.9049653000
  H        -3.1654054500        2.3183945800        0.0000425200
  H        -3.1654644500        0.7510479100       -0.9048034000
  H        -0.8743194500        1.7958802300        0.9047170700
  H        -0.8747974500        0.2285332100       -0.0001026800
  H        -0.8747794500        1.7959601100       -0.9050376500
       8
 i =        1, time =        0.500, E =       -14.9506148451
  C        -2.7699566491        1.2739429138       -0.0000876114
  C        -1.2703157507        1.2737055352       -0.0005525337
  H        -3.1590868605        0.7477913910        0.9070175726
  H        -3.1597406169        2.3161351170        0.0013812532
  H        -3.1636668432        0.7500689596       -0.8993595443
  H        -0.8745238485        1.7941773922        0.9072148036
  H        -0.8797533539        0.2265187808       -0.0020136894
  H        -0.8786135354        1.7994312918       -0.9068312113
       8
 i =        2, time =        1.000, E =       -14.9506287842
  C        -2.7700781951        1.2743287747       -0.0001424398
  C        -1.2705540986        1.2738753234       -0.0011058177
  H        -3.1529988970        0.7453335799        0.9076619273
  H        -3.1542313885        2.3125969132        0.0027257454
  H        -3.1619527643        0.7497556249       -0.8928638153
  H        -0.8747976769        1.7916648556        0.9082595495
  H        -0.8846823251        0.2261124548       -0.0039424698
  H        -0.8824486840        1.8020468574       -0.9071850306
       8
 i =        3, time =        1.500, E =       -14.9507439321
  C        -2.7704058427        1.2746782239       -0.0001338544
  C        -1.2705399021        1.2740499853       -0.0016607806
  H        -3.1469900079        0.7437863092        0.9069275356
  H        -3.1490898810        2.3081343589        0.0040850762
  H        -3.1604750186        0.7499514615       -0.8856676715
  H        -0.8751320128        1.7883542487        0.9078330417
  H        -0.8894952546        0.2272633653       -0.0059100929
  H        -0.8862195816        1.8037892524       -0.9061001060
       8
 i =        4, time =        2.000, E =       -14.9508843642
  C        -2.7709036147        1.2749755748       -0.0000344828
  C        -1.2702888733        1.2742314216       -0.0022184728
  H        -3.1411595416        0.7431291534        0.9049403819
  H        -3.1445404940        2.3031745595        0.0054681590
  H        -3.1594029005        0.7504628349       -0.8781812164
  H        -0.8754850209        1.7843133508        0.9060174788
  H        -0.8940769515        0.2298143396       -0.0079372656
  H        -0.8898318091        1.8046989889       -0.9036760042
       8
 i =        5, time =        2.500, E =       -14.9509731147
  C        -2.7715301658        1.2752080820        0.0001778257
  C        -1.2698261795        1.2744207502       -0.0027801051
  H        -3.1356321400        0.7432851472        0.9019182127
  H        -3.1408072337        2.2981855336        0.0068831635
  H        -3.1589104359        0.7510750510       -0.8708447444
  H        -0.8757836562        1.7796624255        0.9029914782
  H        -0.8982908782        0.2335107222       -0.0100444357
  H        -0.8931653949        1.8048724955       -0.9001056799
       8
 i =        6, time =        3.000, E =       -14.9509575158
  C        -2.7722416966        1.2753671240        0.0005179479
  C        -1.2691850904        1.2746180728       -0.0033470774
  H        -3.1305525642        0.7441253472        0.8981603909
  H        -3.1380990015        2.2936367146        0.0083367603
  H        -3.1591621333        0.7515726365       -0.8640940399
  H        -0.8759273092        1.7745677074        0.8990207810
  H        -0.9019856502        0.2380154995       -0.0122518184
  H        -0.8960801106        1.8044568987       -0.8956651366
       8
 i =        7, time =        3.500, E =       -14.9508271424
  C        -2.7729952941        1.2754492866        0.0009916157
  C        -1.2684050906        1.2748222247       -0.0039210037
  H        -3.1260787418        0.7454771116        0.8940314922
  H        -3.1365937214        2.2899540972        0.0098332475
  H        -3.1602970747        0.7517624689       -0.8583216001
  H        -0.8757936592        1.7692316747        0.8944428766
  H        -0.9050033654        0.2429313475       -0.0145792759
  H        -0.8984226721        1.8036412181       -0.8906971299
       8
 i =        8, time =        4.000, E =       -14.9506187532
  C        -2.7737524150        1.2754571105        0.0015941551
  C        -1.2675294061        1.2750305555       -0.0045037224
  H        -3.1223728714        0.7471365856        0.8899380237
  H        -3.1364230528        2.2874753257        0.0113737075
  H        -3.1624132352        0.7514968641       -0.8538383317
  H        -0.8752470720        1.7638798140        0.8896447512
  H        -0.9071896742        0.2478298014       -0.0170460050
  H        -0.9000359935        1.8026434968       -0.8855882806
       8
 i =        9, time =        4.500, E =       -14.9504061408
  C        -2.7744821280        1.2753992300        0.0023103072
  C        -1.2666019849        1.2752388161       -0.0050972882
  H        -3.1195906216        0.7488854907        0.8862982446
  H        -3.1376598017        2.2864115809        0.0129553857
  H        -3.1655543747        0.7506929066       -0.8508415162
  H        -0.8741496428        1.7587440032        0.8850337522
  H        -0.9084052420        0.2522864756       -0.0196699539
  H        -0.9007704386        1.8016938896       -0.8807397460
       8
 i =       10, time =        5.000, E =       -14.9502776468
  C        -2.7751637196        1.2752896908        0.0031154955
  C        -1.2656640772        1.2754412361       -0.0057039368
  H        -3.1178687377        0.7505116164        0.8835062678
  H        -3.1403100760        2.2868230927        0.0145714643
  H        -3.1697018655        0.7493443524       -0.8493946637
  H        -0.8723745005        1.7540433463        0.8810028388
  H        -0.9085377903        0.2559196771       -0.0224669469
  H        -0.9004965732        1.8010144879       -0.8765328997
       8
 i =       11, time =        5.500, E =       -14.9503076660
  C        -2.7757883006        1.2751464018        0.0039785990
  C        -1.2647507026        1.2756308634       -0.0063260132
  H        -3.1173119536        0.7518311753        0.8818935896
  H        -3.1443116141        2.2886131934        0.0162113335
  H        -3.1747731561        0.7475235451       -0.8494231618
  H        -0.8698203647        1.7499641441        0.8778930849
  H        -0.9075135034        0.2584281814       -0.0254495351
  H        -0.8991184268        1.8007976193       -0.8732930255
       8
 i =       12, time =        6.000, E =       -14.9505305480
  C        -2.7763592060        1.2749889141        0.0048658796
  C        -1.2638874235        1.2758001696       -0.0069658624
  H        -3.1179806986        0.7527100432        0.8816930260
  H        -3.1495385919        2.2915421172        0.0178613383
  H        -3.1806272970        0.7453728989       -0.8507264532
  H        -0.8664256468        1.7466415248        0.8759581279
  H        -0.9053063136        0.2596227977       -0.0286256684
  H        -0.8965857386        1.8011854162       -0.8712556868
       8
 i =       13, time =        6.500, E =       -14.9509255590
  C        -2.7768911728        1.2748359345        0.0057453470
  C        -1.2630879057        1.2759418489       -0.0076256876
  H        -3.1198815082        0.7530802334        0.8830110540
  H        -3.1558120092        2.2952573933        0.0195058604
  H        -3.1870764994        0.7430877633       -0.8530040260
  H        -0.8621798922        1.7441456189        0.8753361231
  H        -0.9019436053        0.2594464407       -0.0319973616
  H        -0.8929033345        1.8022539126       -0.8705411206
       8
 i =       14, time =        7.000, E =       -14.9514192908
  C        -2.7774084453        1.2747030749        0.0065906957
  C        -1.2623526963        1.2760496598       -0.0083073970
  H        -3.1229620001        0.7529482696        0.8858139977
  H        -3.1629138839        2.2993348814        0.0211285535
  H        -3.1939017116        0.7408940668       -0.8558901077
  H        -0.8571303963        1.7424747948        0.8760343301
  H        -0.8975072483        0.2579790840       -0.0355595972
  H        -0.8881358881        1.8040046126       -0.8711413732
       8
 i =       15, time =        7.500, E =       -14.9519064760
  C        -2.7779420863        1.2746012638        0.0073840852
  C        -1.2616694688        1.2761191304       -0.0090124621
  H        -3.1271116610        0.7523935716        0.8899311525
  H        -3.1706031415        2.3033233717        0.0227135343
  H        -3.2008697535        0.7390245734       -0.8589912488
  H        -0.8513825044        1.7415572931        0.8779294005
  H        -0.8921296232        0.2554266801       -0.0392996981
  H        -0.8824069386        1.8063652246       -0.8729227581
       8
 i =       16, time =        8.000, E =       -14.9522827716
  C        -2.7785268219        1.2745360368        0.0081173959
  C        -1.2610147194        1.2761479862       -0.0097418120
  H        -3.1321686014        0.7515571257        0.8950744251
  H        -3.1786313395        2.3067866798        0.0242464148
  H        -3.2077498870        0.7376969361       -0.8619218375
  H        -0.8450932781        1.7412609424        0.8807833258
  H        -0.8859851402        0.2520962555       -0.0431973356
  H        -0.8758920524        1.8091994138       -0.8756431689
       8
 i =       17, time =        8.500, E =       -14.9524775053
  C        -2.7791977548        1.2745076729        0.0087920166
  C        -1.2603566358        1.2761362466       -0.0104957782
  H        -3.1379312578        0.7506227981        0.9008706627
  H        -3.1867568617        2.3093391988        0.0257151067
  H        -3.2143283604        0.7370955699       -0.8643343093
  H        -0.8384595705        1.7414090648        0.8842718618
  H        -0.8792784561        0.2483616521       -0.0472252237
  H        -0.8688070991        1.8123236227       -0.8789808701
       8
 i =       18, time =        9.000, E =       -14.9524741861
  C        -2.7799872332        1.2745119556        0.0094175328
  C        -1.2596586786        1.2760860273       -0.0112740903
  H        -3.1441731897        0.7497948684        0.9069008029
  H        -3.1947569021        2.3106731839        0.0271103968
  H        -3.2204201740        0.7373581688       -0.8659425909
  H        -0.8317024787        1.7417997170        0.8880202152
  H        -0.8722309663        0.2446254188       -0.0513504247
  H        -0.8613933954        1.8155279192       -0.8825695739
       8
 i =       19, time =        9.500, E =       -14.9523120017
  C        -2.7809221048        1.2745412596        0.0100098221
  C        -1.2588833682        1.2760011515       -0.0120759094
  H        -3.1506588014        0.7492754438        0.9127396555
  H        -3.2024370098        2.3105776669        0.0284263145
  H        -3.2258779008        0.7385667681       -0.8665387494
  H        -0.8250505003        1.7422253508        0.8916404000
  H        -0.8650671181        0.2412818232       -0.0555360911
  H        -0.8539017429        1.8185976199       -0.8860344925
       8
 i =       20, time =       10.000, E =       -14.9520693857
  C        -2.7820214849        1.2745857011        0.0105890030
  C        -1.2579958558        1.2758866837       -0.0128998847
  H        -3.1571581486        0.7492446059        0.9179915460
  H        -3.2096382438        2.3089497790        0.0296603150
  H        -3.2305977045        0.7407428710       -0.8660034321
  H        -0.8187234848        1.7424905357        0.8947655956
  H        -0.8580017851        0.2386846212       -0.0597434272
  H        -0.8465771597        1.8213330424       -0.8890249841
       8
 i =       21, time =       10.500, E =       -14.9518367974
  C        -2.7832951046        1.2746341797        0.0111775304
  C        -1.2569669790        1.2757484785       -0.0137442173
  H        -3.1634596349        0.7498447888        0.9223190842
  H        -3.2162420888        2.3057996949        0.0308132786
  H        -3.2345228432        0.7438459707       -0.8643110411
  H        -0.8129188073        1.7424263680        0.8970786373
  H        -0.8512295121        0.2371214960       -0.0639336832
  H        -0.8396455981        1.8235657859       -0.8912412372
       8
 i =       22, time =       11.000, E =       -14.9516882780
  C        -2.7847422609        1.2746752460        0.0117985546
  C        -1.2557756685        1.2755927920       -0.0146067183
  H        -3.1693800628        0.7511697846        0.9254643376
  H        -3.2221732406        2.3012500248        0.0318893274
  H        -3.2376448656        0.7477750338       -0.8615302336
  H        -0.8078004188        1.7419011255        0.8983335562
  H        -0.8449159493        0.2367955849       -0.0680700364
  H        -0.8333032568        1.8251709542       -0.8924541096
       8
 i =       23, time =       11.500, E =       -14.9516601190
  C        -2.7863513734        1.2746978105        0.0124745140
  C        -1.2544106824        1.2754259683       -0.0154848598
  H        -3.1747720352        0.7532579989        0.9272627375
  H        -3.2274002040        2.2955299814        0.0328954362
  H        -3.2400024596        0.7523727895       -0.8578199896
  H        -0.8034908796        1.7408273469        0.8983703262
  H        -0.8391915250        0.2378136686       -0.0721192700
  H        -0.8277086057        1.8260754355       -0.8925183689
       8
 i =       24, time =       12.000, E =       -14.9517420016
  C        -2.7881001726        1.2746917630        0.0132258466
  C        -1.2528717012        1.2752541799       -0.0163758166
  H        -3.1795289812        0.7560892830        0.9276509573
  H        -3.2319334846        2.2889640865        0.0338407937
  H        -3.2416777736        0.7574330492       -0.8534208130
  H        -0.8000661538        1.7391658128        0.8971236095
  H        -0.8341472335        0.2401802836       -0.0760532034
  H        -0.8229769570        1.8262626827       -0.8913801526
       8
 i =       25, time =       12.500, E =       -14.9518821731
  C        -2.7899565636        1.2746485788        0.0140696846
  C        -1.2511698240        1.2750831945       -0.0172765059
  H        -3.1835881173        0.7595847626        0.9266696480
  H        -3.2358210131        2.2819546667        0.0347359147
  H        -3.2427898381        0.7627113938       -0.8486404017
  H        -0.7975528834        1.7369268880        0.8946263297
  H        -0.8298324119        0.2437971756       -0.0798498500
  H        -0.8191773490        1.8257744492       -0.8890794825
       8
 i =       26, time =       13.000, E =       -14.9520046541
  C        -2.7918802232        1.2745619725        0.0150184352
  C        -1.2493274785        1.2749181389       -0.0181836306
  H        -3.1869315218        0.7636093417        0.9244614663
  H        -3.2391404405        2.2749574500        0.0355915072
  H        -3.2434847533        0.7679395912       -0.8438331301
  H        -0.7959279931        1.7341694920        0.8910084930
  H        -0.8262545278        0.2484679226       -0.0834942694
  H        -0.8163316286        1.8247096958       -0.8857482352
       8
 i =       27, time =       13.500, E =       -14.9520337132
  C        -2.7938249567        1.2744286125        0.0160782468
  C        -1.2473777101        1.2747632441       -0.0190937356
  H        -3.1895852384        0.7679769786        0.9212642992
  H        -3.2419881842        2.2684500920        0.0364171656
  H        -3.2439226042        0.7728436704       -0.8393730602
  H        -0.7951206898        1.7309976933        0.8864911925
  H        -0.8233811701        0.2539080180       -0.0869790530
  H        -0.8144158276        1.8232205674       -0.8816035105
       8
 i =       28, time =       14.000, E =       -14.9519187078
  C        -2.7957417584        1.2742488419        0.0172474989
  C        -1.2453627861        1.2746215755       -0.0200032816
  H        -3.1916160469        0.7724591028        0.9173988529
  H        -3.2444656059        2.2628947099        0.0372200465
  H        -3.2442617128        0.7771648184       -0.8356215451
  H        -0.7950171148        1.7275546689        0.8813752016
  H        -0.8211444818        0.2597609876       -0.0903043473
  H        -0.8133640951        1.8215050779       -0.8769359003
       8
 i =       29, time =       14.500, E =       -14.9516521985
  C        -2.7975823863        1.2740272708        0.0185156096
  C        -1.2433320485        1.2744947790       -0.0209087369
  H        -3.1931253772        0.7767967024        0.9132495348
  H        -3.2466635368        2.2586972707        0.0380037520
  H        -3.2446416453        0.7806812673       -0.8328921054
  H        -0.7954680010        1.7240136898        0.8760234285
  H        -0.8194483333        0.2656210069       -0.0934773129
  H        -0.8130755285        1.8197960442       -0.8720920061
       8
 i =       30, time =       15.000, E =       -14.9512756611
  C        -2.7993031051        1.2737730489        0.0198625586
  C        -1.2413390026        1.2743828986       -0.0218066849
  H        -3.1942399068        0.7807164316        0.9092378447
  H        -3.2486471085        2.2561686167        0.0387676844
  H        -3.2451671798        0.7832284802       -0.8314167704
  H        -0.7962995758        1.7205659002        0.8708366164
  H        -0.8181782576        0.2710619837       -0.0965109196
  H        -0.8134241286        1.8183459163       -0.8674507504
       8
 i =       31, time =       15.500, E =       -14.9508703516
  C        -2.8008681474        1.2734996123        0.0212595378
  C        -1.2394377153        1.2742843383       -0.0226939317
  H        -3.1950987168        0.7839505137        0.9057884690
  H        -3.2504434744        2.2554926364        0.0395070905
  H        -3.2458959356        0.7847144402       -0.8313192472
  H        -0.7973275830        1.7174050479        0.8662225326
  H        -0.8172137624        0.2756719123       -0.0994220541
  H        -0.8142716965        1.8174077010       -0.8633938754
       8
 i =       32, time =       16.000, E =       -14.9505348829
  C        -2.8022524163        1.2732237627        0.0226709692
  C        -1.2376787873        1.2741960356       -0.0235675952
  H        -3.1958375827        0.7862593892        0.9032898798
  H        -3.2520348211        2.2567072606        0.0402138940
  H        -3.2468319767        0.7851273557       -0.8325997885
  H        -0.7983735915        1.7147100550        0.8625603299
  H        -0.8164419894        0.2790898197       -0.1022290764
  H        -0.8154828038        1.8172130450       -0.8602723791
       8
 i =       33, time =       16.500, E =       -14.9503551830
  C        -2.8034430412        1.2729640906        0.0240578071
  C        -1.2361053216        1.2741138823       -0.0244251543
  H        -3.1965719587        0.7874548043        0.9020535318
  H        -3.2533581771        2.2597016506        0.0408782102
  H        -3.2479266416        0.7845343758       -0.8351346341
  H        -0.7992820156        1.7126270809        0.8601633717
  H        -0.8157711126        0.2810412098       -0.1049490796
  H        -0.8169402448        1.8179495167       -0.8583721059
       8
 i =       34, time =       17.000, E =       -14.9503758540
  C        -2.8044395826        1.2727389472        0.0253816519
  C        -1.2347494441        1.2740333609       -0.0252644454
  H        -3.1973811444        0.7874201704        0.9022774657
  H        -3.2543121019        2.2642299895        0.0414902566
  H        -3.2490863480        0.7830716960       -0.8386901672
  H        -0.7999355909        1.7112534705        0.8592453607
  H        -0.8151414833        0.2813670039       -0.1075952663
  H        -0.8185587489        1.8197400503       -0.8578830683
       8
 i =       35, time =       17.500, E =       -14.9505832558
  C        -2.8052528950        1.2725643258        0.0266089139
  C        -1.2336299454        1.2739502977       -0.0260836022
  H        -3.1982965683        0.7861246063        0.9040209976
  H        -3.2547689001        2.2699391149        0.0420422812
  H        -3.2501856603        0.7809280977       -0.8429487952
  H        -0.8002668055        1.7106262150        0.8598952705
  H        -0.8145326298        0.2800412353       -0.1101749028
  H        -0.8202945786        1.8226278557       -0.8588775168
       8
 i =       36, time =       18.000, E =       -14.9509080680
  C        -2.8059028569        1.2724520670        0.0277142134
  C        -1.2327514694        1.2738615770       -0.0268809584
  H        -3.1992966941        0.7836278414        0.9071957417
  H        -3.2545899849        2.2764050289        0.0425301493
  H        -3.2510831325        0.7783248811       -0.8475419054
  H        -0.8002632251        1.7107171116        0.8620657505
  H        -0.8139648506        0.2771742781       -0.1126882461
  H        -0.8221491610        1.8265695996       -0.8613008387
       8
 i =       37, time =       18.500, E =       -14.9512480513
  C        -2.8064153164        1.2724087085        0.0286824259
  C        -1.2321053889        1.2737656631       -0.0276549386
  H        -3.2003097115        0.7800747891        0.9115751356
  H        -3.2536418460        2.2831725039        0.0429543647
  H        -3.2516373695        0.7754952123       -0.8520847000
  H        -0.7999657589        1.7114356357        0.8655773929
  H        -0.8134951854        0.2730010329       -0.1151286390
  H        -0.8241660676        1.8314382712       -0.8649771601
       8
 i =       38, time =       19.000, E =       -14.9515029232
  C        -2.8068186701        1.2724351138        0.0295091774
  C        -1.2316721668        1.2736628304       -0.0284039675
  H        -3.2012233964        0.7756807702        0.9168206644
  H        -3.2518104736        2.2897930119        0.0433204559
  H        -3.2517213386        0.7726652458       -0.8562086510
  H        -0.7994603545        1.7126390037        0.8701381052
  H        -0.8132086528        0.2678561568       -0.1174837317
  H        -0.8264220681        1.8370352755       -0.8696286172
       8
 i =       39, time =       19.500, E =       -14.9516076838
  C        -2.8071404909        1.2725268076        0.0301999958
  C        -1.2314247323        1.2735550853       -0.0291264174
  H        -3.2018999585        0.7707101725        0.9225195253
  H        -3.2490129045        2.2958576726        0.0436388094
  H        -3.2512337983        0.7700384433       -0.8595888978
  H        -0.7988648811        1.7141475296        0.8753739591
  H        -0.8132064482        0.2621406270       -0.1197375577
  H        -0.8290141631        1.8431095731       -0.8749047318
       8
 i =       40, time =       20.000, E =       -14.9515518249
  C        -2.8074045467        1.2726748063        0.0307685694
  C        -1.2313322774        1.2734458437       -0.0298205994
  H        -3.2021929506        0.7654521740        0.9282269906
  H        -3.2452053622        2.3010233945        0.0439240988
  H        -3.2501074652        0.7677835980       -0.8619653735
  H        -0.7983136220        1.7157626537        0.8808661706
  H        -0.8135930763        0.2562846934       -0.1218730787
  H        -0.8320450136        1.8493806865       -0.8804169027
       8
 i =       41, time =       20.500, E =       -14.9513786489
  C        -2.8076284432        1.2728666931        0.0312346164
  C        -1.2313639137        1.2733394721       -0.0304847899
  H        -3.2019634932        0.7601970325        0.9335072858
  H        -3.2403880356        2.3050319855        0.0441944862
  H        -3.2483140644        0.7660265001       -0.8631575055
  H        -0.7979417813        1.7172849701        0.8861887398
  H        -0.8144641747        0.2507119323       -0.1238747982
  H        -0.8356090692        1.8555622568       -0.8857730240
       8
 i =       42, time =       21.000, E =       -14.9511670763
  C        -2.8078219886        1.2730877236        0.0316217675
  C        -1.2314917982        1.2732407962       -0.0311172771
  H        -3.2010939109        0.7552153279        0.9379685708
  H        -3.2346069089        2.3077226741        0.0444707370
  H        -3.2458666945        0.7648448432       -0.8630731900
  H        -0.7978717997        1.7185302644        0.8909424921
  H        -0.8158962380        0.2458076923       -0.1257311381
  H        -0.8397809377        1.8613835867       -0.8906084907
       8
 i =       43, time =       21.500, E =       -14.9510040531
  C        -2.8079862904        1.2733218435        0.0319556748
  C        -1.2316935239        1.2731546535       -0.0317164167
  H        -3.1994979310        0.7507413933        0.9412900604
  H        -3.2279530944        2.3090386599        0.0447753370
  H        -3.2428198646        0.7642659832       -0.8617125980
  H        -0.7982024453        1.7193424369        0.8947830322
  H        -0.8179388116        0.2418937503       -0.1274363913
  H        -0.8446067978        1.8666075736       -0.8946114136
       8
 i =       44, time =       22.000, E =       -14.9509570811
  C        -2.8081135329        1.2735525779        0.0322623970
  C        -1.2319537398        1.2730855255       -0.0322806877
  H        -3.1971274009        0.7469611095        0.9432411122
  H        -3.2205600202        2.3090281789        0.0451316432
  H        -3.2392675199        0.7642673050       -0.8591672989
  H        -0.7990009581        1.7196029584        0.8974417072
  H        -0.8206092668        0.2392096741       -0.1289921713
  H        -0.8500989245        1.8710444168       -0.8975413451
       8
 i =       45, time =       22.500, E =       -14.9510546230
  C        -2.8081873660        1.2737638262        0.0325669900
  C        -1.2322650701        1.2730372505       -0.0328087432
  H        -3.1939759936        0.7440036028        0.9436932535
  H        -3.2125986677        2.3078402093        0.0455630851
  H        -3.2353391244        0.7647791802       -0.8556147874
  H        -0.8002980133        1.7192370842        0.8987399181
  H        -0.8238899434        0.2379005719       -0.1304083710
  H        -0.8562329770        1.8745612706       -0.8992418977
       8
 i =       46, time =       23.000, E =       -14.9512789137
  C        -2.8081838512        1.2739406272        0.0328921732
  C        -1.2326284407        1.2730127972       -0.0332994573
  H        -3.1900804999        0.7419361950        0.9426263598
  H        -3.2042708590        2.3057144573        0.0460923828
  H        -3.2311937079        0.7656907194       -0.8513081053
  H        -0.8020851104        1.7182172414        0.8985974895
  H        -0.8277273778        0.2380106035       -0.1317036492
  H        -0.8629475927        1.8770882245       -0.8996479552
       8
 i =       47, time =       23.500, E =       -14.9515720077
  C        -2.8080729336        1.2740699594        0.0332569560
  C        -1.2330529082        1.2730140759       -0.0337519704
  H        -3.1855201778        0.7407621202        0.9401299233
  H        -3.1958005027        2.3029650129        0.0467407562
  H        -3.2270117199        0.7668586354       -0.8465600352
  H        -0.8043140196        1.7165639679        0.8970359162
  H        -0.8320333988        0.2394817847       -0.1329054662
  H        -0.8701458646        1.8786210371       -0.8987882405
       8
 i =       48, time =       24.000, E =       -14.9518529031
  C        -2.8078204129        1.2741416123        0.0336751735
  C        -1.2335550442        1.2730417637       -0.0341657363
  H        -3.1804143547        0.7404208922        0.9363996498
  H        -3.1874228673        2.2999571657        0.0475271205
  H        -3.2229846119        0.7681194049       -0.8417215675
  H        -0.8068981104        1.7143445934        0.8941767773
  H        -0.8366880328        0.2421579939       -0.1340496457
  H        -0.8776984799        1.8792207924       -0.8967834914
       8
 i =       49, time =       24.500, E =       -14.9520411448
  C        -2.8073903703        1.2741491008        0.0341539984
  C        -1.2341578823        1.2730951430       -0.0345405733
  H        -3.1749181961        0.7407916836        0.9317288958
  H        -3.1793721360        2.2970775359        0.0484672823
  H        -3.2193024038        0.7693045260       -0.8371549175
  H        -0.8097156151        1.7116695812        0.8902351035
  H        -0.8415442057        0.2457945094       -0.1351794101
  H        -0.8854484844        1.8790102764       -0.8938400460
       8
 i =       50, time =       25.000, E =       -14.9520808830
  C        -2.8067479565        1.2740905204        0.0346926357
  C        -1.2348893953        1.2731719652       -0.0348767199
  H        -3.1692163060        0.7417004385        0.9264938207
  H        -3.1718679877        2.2946989867        0.0495732062
  H        -3.2161398707        0.7702579439       -0.8332025802
  H        -0.8126150649        1.7086862635        0.8855070792