#     Step Nr.          Time[fs]        Kin.[a.u.]          Temp[K]            Pot.[a.u.]        Cons Qty[a.u.]        UsedTime[s]
         0            0.000000         0.001662578        50.000000000       -14.950752033       -14.949010284         0.000000000
         1            0.500000         0.001518062        45.653862813       -14.950614845       -14.949010730        22.009297572
         2            1.000000         0.001522202        45.778350687       -14.950628784       -14.949013966         3.659240235
         3            1.500000         0.001625639        48.889092505       -14.950743932       -14.949018895         3.878516620
         4            2.000000         0.001753750        52.741888831       -14.950884364       -14.949023933         3.350155042
         5            2.500000         0.001831222        55.071760414       -14.950973115       -14.949027458         3.396519182
         6            3.000000         0.001806838        54.338451543       -14.950957516       -14.949028331         3.186363662
         7            3.500000         0.001671001        50.253310049       -14.950827142       -14.949026195         5.336009862
         8            4.000000         0.001460291        43.916457803       -14.950618753       -14.949021664         2.783083146
         9            4.500000         0.001247295        37.510879033       -14.950406141       -14.949016148         3.140323114
        10            5.000000         0.001118396        33.634399403       -14.950277647       -14.949011449         3.208469644
        11            5.500000         0.001145805        34.458670580       -14.950307666       -14.949009241         3.233582001
        12            6.000000         0.001362145        40.964845321       -14.950530548       -14.949010513         2.857936082
        13            6.500000         0.001746034        52.509847519       -14.950925559       -14.949015146         3.452860665
        14            7.000000         0.002224757        66.906858206       -14.951419291       -14.949021828         3.263567636
        15            7.500000         0.002694810        81.043108138       -14.951906476       -14.949028463         3.085201366
        16            8.000000         0.003053984        91.844829938       -14.952282772       -14.949032949         2.422117675
        17            8.500000         0.003233339        97.238699452       -14.952477505       -14.949033976         2.625262292
        18            9.000000         0.003217197        96.753274351       -14.952474186       -14.949031458         2.969061365
        19            9.500000         0.003044538        91.560742289       -14.952312002       -14.949026450         3.069491008
        20           10.000000         0.002792749        83.988499012       -14.952069386       -14.949020689         2.757546034
        21           10.500000         0.002550815        76.712631003       -14.951836797       -14.949015983         2.879296439
        22           11.000000         0.002391305        71.915578126       -14.951688278       -14.949013692         2.417472091
        23           11.500000         0.002349486        70.657913973       -14.951660119       -14.949014384         2.572315034
        24           12.000000         0.002414768        72.621184463       -14.951742002       -14.949017735         2.280658903
        25           12.500000         0.002535991        76.266812431       -14.951882173       -14.949022674         1.875751862
        26           13.000000         0.002638567        79.351669520       -14.952004654       -14.949027651         2.237524400
        27           13.500000         0.002648620        79.653995038       -14.952033713       -14.949031085         2.135764390
        28           14.000000         0.002517369        75.706792348       -14.951918708       -14.949031804         2.848953433
        29           14.500000         0.002238708        67.326398947       -14.951652199       -14.949029414         2.672472941
        30           15.000000         0.001854472        55.770963136       -14.951275661       -14.949024452         2.860970972
        31           15.500000         0.001445058        43.458357145       -14.950870352       -14.949018306         2.859089307
        32           16.000000         0.001107117        33.295201638       -14.950534883       -14.949012876         2.756554484
        33           16.500000         0.000924057        27.789897348       -14.950355183       -14.949010010         2.950095935
        34           17.000000         0.000938276        28.217515207       -14.950375854       -14.949010833         3.013878670
        35           17.500000         0.001135109        34.137000639       -14.950583256       -14.949015223         3.229163604
        36           18.000000         0.001445791        43.480384226       -14.950908068       -14.949021739         2.891867232
        37           18.500000         0.001769923        53.228259706       -14.951248051       -14.949028144         2.494970692
        38           19.000000         0.002009522        60.433924537       -14.951502923       -14.949032292         2.848044332
        39           19.500000         0.002101448        63.198474147       -14.951607684       -14.949032949         2.744387241
        40           20.000000         0.002036016        61.230703728       -14.951551825       -14.949030165         2.511966348
        41           20.500000         0.001856180        55.822351837       -14.951378649       -14.949025123         2.354105659
        42           21.000000         0.001639602        49.309029932       -14.951167076       -14.949019583         2.178665100
        43           21.500000         0.001471496        44.253449796       -14.951004053       -14.949015287         2.720335227
        44           22.000000         0.001417653        42.634174256       -14.950957081       -14.949013486         2.448482040
        45           22.500000         0.001505319        45.270617557       -14.951054623       -14.949014634         2.300078293
        46           23.000000         0.001716299        51.615596711       -14.951278914       -14.949018359         2.519160362
        47           23.500000         0.001993120        59.940639210       -14.951572008       -14.949023590         2.588104807
        48           24.000000         0.002256037        67.847561719       -14.951852903       -14.949028848         3.025755392
        49           24.500000         0.002426359        72.969785086       -14.952041145       -14.949032602         2.879337490
        50           25.000000         0.002450070        73.682854793       -14.952080883       -14.949033678         2.655720212
        51           25.500000         0.002315441        69.634046447       -14.951958997       -14.949031611         2.891872771
        52           26.000000         0.002059315        61.931369220       -14.951711848       -14.949026846         2.310043277
        53           26.500000         0.001759064        52.901687650       -14.951417550       -14.949020731         3.158924244
        54           27.000000         0.001510781        45.434899848       -14.951174108       -14.949015234         2.521155091
        55           27.500000         0.001398842        42.068447670       -14.951068422       -14.949012328         2.689557411
        56           28.000000         0.001466338        44.098322855       -14.951145777       -14.949013224         2.736879377
        57           28.500000         0.001697828        51.060091662       -14.951391660       -14.949017773         2.707499901
        58           29.000000         0.002022667        60.829222543       -14.951734712       -14.949024423         2.542646026
        59           29.500000         0.002339045        70.343922430       -14.952071120       -14.949030832         3.113522114
        60           30.000000         0.002549468        76.672136999       -14.952300978       -14.949034841         2.901199630
        61           30.500000         0.002593390        77.993019512       -14.952361803       -14.949035293         2.973089484
        62           31.000000         0.002464835        74.126895731       -14.952246705       -14.949032336         3.150073586
        63           31.500000         0.002210199        66.469024484       -14.952002271       -14.949027190         3.441727774
        64           32.000000         0.001909459        57.424644198       -14.951709574       -14.949021613         2.802266575
        65           32.500000         0.001649062        49.593524657       -14.951456645       -14.949017297         2.980060522
        66           33.000000         0.001495624        44.979063563       -14.951311723       -14.949015431         2.836622665
        67           33.500000         0.001477573        44.436188749       -14.951304441       -14.949016444         2.965783913
        68           34.000000         0.001578621        47.475084063       -14.951419008       -14.949020001         2.526664829
        69           34.500000         0.001743759        52.441411920       -14.951599986       -14.949025065         2.713075642
        70           35.000000         0.001895811        57.014207720       -14.951768919       -14.949030166         2.641778814
        71           35.500000         0.001958508        58.899745550       -14.951847687       -14.949033762         2.663260972
        72           36.000000         0.001880498        56.553678759       -14.951782969       -14.949034616         2.868857479
        73           36.500000         0.001653915        49.739481476       -14.951565408       -14.949032191         2.856166538
        74           37.000000         0.001321423        39.740171515       -14.951237250       -14.949026935        14.195200598
        75           37.500000         0.000967724        29.103101555       -14.950884251       -14.949020336         3.231828488
        76           38.000000         0.000695723        20.923005292       -14.950611690       -14.949014563        11.325692795
        77           38.500000         0.000593281        17.842203537       -14.950510358       -14.949011726         3.127036259
        78           39.000000         0.000701912        21.109142221       -14.950624120       -14.949012996         2.687061327
        79           39.500000         0.001000242        30.081053514       -14.950932423       -14.949018016         2.586765639
        80           40.000000         0.001410250        42.411533068       -14.951356301       -14.949025002         2.763455383
        81           40.500000         0.001824519        54.870174564       -14.951786215       -14.949031501         2.666993519
        82           41.000000         0.002143271        64.456238600       -14.952120077       -14.949035417         2.762503011
        83           41.500000         0.002306222        69.356795722       -14.952295986       -14.949035767         2.282262163
        84           42.000000         0.002307958        69.409018793       -14.952307966       -14.949032838         2.341070762
        85           42.500000         0.002193488        65.966463213       -14.952201535       -14.949027932         2.261194920
        86           43.000000         0.002038373        61.301559262       -14.952053500       -14.949022780         2.377177112
        87           43.500000         0.001921966        57.800787169       -14.951944775       -14.949018990         2.303668171
        88           44.000000         0.001902470        57.214469707       -14.951934994       -14.949017634         2.753014503
        89           44.500000         0.002000227        60.154389780       -14.952045465       -14.949019061         2.692632532
        90           45.000000         0.002192521        65.937399276       -14.952253701       -14.949022864         2.405155713
        91           45.500000         0.002420235        72.785599801       -14.952499984       -14.949028018         2.393478928
        92           46.000000         0.002604380        78.323528272       -14.952703949       -14.949033095         2.341473071
        93           46.500000         0.002668697        80.257797347       -14.952787417       -14.949036585         2.855260907
        94           47.000000         0.002563069        77.081162005       -14.952698224       -14.949037283         2.302465100
        95           47.500000         0.002281543        68.614624165       -14.952428820       -14.949034683         2.057113079
        96           48.000000         0.001868897        56.204786312       -14.952023444       -14.949029281         1.938749094
        97           48.500000         0.001411607        42.452364921       -14.951569460       -14.949022603         1.786254298
        98           49.000000         0.001013516        30.480241044       -14.951172878       -14.949016820         2.371933062
        99           49.500000         0.000762677        22.936573706       -14.950924423       -14.949013970         2.605122346
       100           50.000000         0.000701249        21.089193695       -14.950868302       -14.949015076         2.365835629
       101           50.500000         0.000811037        24.390951482       -14.950986880       -14.949019648         2.510866119
       102           51.000000         0.001021579        30.722741464       -14.951208623       -14.949025873         2.295069281
       103           51.500000         0.001237640        37.220512934       -14.951436227       -14.949031417         2.321668277
       104           52.000000         0.001374381        41.332821651       -14.951582752       -14.949034390         2.553924443
       105           52.500000         0.001385979        41.681609831       -14.951601048       -14.949034000         2.819498602
       106           53.000000         0.001277879        38.430646263       -14.951496357       -14.949030673         2.756969800
       107           53.500000         0.001100615        33.099643055       -14.951320046       -14.949025720         2.448378656
       108           54.000000         0.000929915        27.966056877       -14.951149351       -14.949020794         2.595023056
       109           54.500000         0.000841183        25.297556093       -14.951061397       -14.949017387         2.410816476
       110           55.000000         0.000886299        26.654367118       -14.951109565       -14.949016480         1.963113349
       111           55.500000         0.001078480        32.433978325       -14.951307986       -14.949018347         2.055001885
       112           56.000000         0.001388125        41.746170454       -14.951627186       -14.949022548         1.810534209
       113           56.500000         0.001750022        52.629756977       -14.952001257       -14.949028023         1.829969948
       114           57.000000         0.002080173        62.558650187       -14.952344830       -14.949033322         2.036185900
       115           57.500000         0.002298638        69.128718858       -14.952576200       -14.949036922         2.388616905
       116           58.000000         0.002353053        70.765176215       -14.952641291       -14.949037638         2.328910127
       117           58.500000         0.002236265        67.252943887       -14.952531840       -14.949035059         2.044562014
       118           59.000000         0.001991616        59.895413955       -14.952291153       -14.949029835         2.685675040
       119           59.500000         0.001701846        51.180949662       -14.952003201       -14.949023634         2.280941168
       120           60.000000         0.001462957        43.996644958       -14.951766135       -14.949018644         2.284614898
       121           60.500000         0.001351057        40.631386309       -14.951658278       -14.949016721         2.323525706
       122           61.000000         0.001394924        41.950645947       -14.951709703       -14.949018566         2.587522116
       123           61.500000         0.001566076        47.097829698       -14.951891733       -14.949023390         2.309328616
       124           62.000000         0.001790916        53.859616460       -14.952129238       -14.949029280         2.664196050
       125           62.500000         0.001979588        59.533678377       -14.952330234       -14.949034044         2.514796961
       126           63.000000         0.002059109        61.925179124       -14.952419884       -14.949036087         1.825462628
       127           63.500000         0.001997769        60.080465030       -14.952365506       -14.949034918         2.486133290
       128           64.000000         0.001813039        54.524916681       -14.952184637       -14.949031151         2.468420291
       129           64.500000         0.001562526        46.991050354       -14.951935818       -14.949026131         2.581814442
       130           65.000000         0.001323310        39.796918200       -14.951697575       -14.949021441         2.568153743
       131           65.500000         0.001167442        35.109382544       -14.951543493       -14.949018441         3.012348965
       132           66.000000         0.001140803        34.308241245       -14.951520675       -14.949017943         2.718696913
       133           66.500000         0.001250330        37.602137399       -14.951636717       -14.949020105         2.126688618
       134           67.000000         0.001462040        43.969075232       -14.951857506       -14.949024366         2.581078582
       135           67.500000         0.001709926        51.423921131       -14.952116165       -14.949029606         2.327892356
       136           68.000000         0.001913757        57.553910492       -14.952331016       -14.949034363         2.094784172
       137           68.500000         0.002001955        60.206358146       -14.952428778       -14.949037181         1.957784319
       138           69.000000         0.001933893        58.159458630       -14.952367358       -14.949037043         2.476406766
       139           69.500000         0.001714964        51.575437834       -14.952151430       -14.949033775         2.530806063
       140           70.000000         0.001398247        42.050554274       -14.951834508       -14.949028273         2.406691875
       141           70.500000         0.001069884        32.175447028       -14.951504310       -14.949022325         2.615399199
       142           71.000000         0.000821253        24.698187829       -14.951254450       -14.949018045         2.906191865
       143           71.500000         0.000717314        21.572336095       -14.951151826       -14.949016984         2.641083259
       144           72.000000         0.000773764        23.270010606       -14.951212927       -14.949019444         2.588197406
       145           72.500000         0.000952840        28.655483786       -14.951399329       -14.949024355         2.553278835
       146           73.000000         0.001179474        35.471226451       -14.951634240       -14.949029773         2.997740090
       147           73.500000         0.001370511        41.216432269       -14.951832532       -14.949033723         2.873955457
       148           74.000000         0.001464649        44.047531234       -14.951931472       -14.949034943         2.746714499
       149           74.500000         0.001441966        43.365368148       -14.951910674       -14.949033236         2.147323348
       150           75.000000         0.001327502        39.923007229       -14.951795679       -14.949029361         2.596228283
       151           75.500000         0.001179915        35.484495955       -14.951646343       -14.949024671         2.701420661
       152           76.000000         0.001070802        32.203045084       -14.951535743       -14.949020641         2.476016697
       153           76.500000         0.001061833        31.933321564       -14.951526913       -14.949018473         2.518937295
       154           77.000000         0.001186003        35.667593070       -14.951653760       -14.949018828         2.850719830
       155           77.500000         0.001437308        43.225279721       -14.951910543       -14.949021701         2.313405173
       156           78.000000         0.001770903        53.257743726       -14.952251974       -14.949026430         2.365024762
       157           78.500000         0.002113705        63.567101412       -14.952603904       -14.949031814         2.255091490
       158           79.000000         0.002383362        71.676683802       -14.952882511       -14.949036363         2.220241670
       159           79.500000         0.002511429        75.528145946       -14.953017833       -14.949038680         1.945559505
       160           80.000000         0.002464674        74.122059312       -14.952975521       -14.949037919         2.276820576
       161           80.500000         0.002257453        67.890123288       -14.952769648       -14.949034171         3.211753363
       162           81.000000         0.001949407        58.626031475       -14.952460660       -14.949028597         2.298398582
       163           81.500000         0.001627082        48.932511821       -14.952136807       -14.949023117         2.066571318
       164           82.000000         0.001374574        41.338633225       -14.951884152       -14.949019698         2.839347176
       165           82.500000         0.001244048        37.413210100       -14.951756226       -14.949019522         2.521591067
       166           83.000000         0.001238239        37.238518814       -14.951755909       -14.949022475         2.449897749
       167           83.500000         0.001312271        39.464941836       -14.951837211       -14.949027232         2.675004601
       168           84.000000         0.001393545        41.909154663       -14.951925698       -14.949031869         2.717791902
       169           84.500000         0.001410799        42.428051255       -14.951948329       -14.949034654         2.863212526
       170           85.000000         0.001320543        39.713722937       -14.951860527       -14.949034658         2.057212351
       171           85.500000         0.001121624        33.731454171       -14.951661025       -14.949031964         2.679200394
       172           86.000000         0.000854415        25.695484568       -14.951390974       -14.949027496         2.815083578
       173           86.500000         0.000586883        17.649776612       -14.951119690       -14.949022641         2.627161292
       174           87.000000         0.000393325        11.828763975       -14.950922975       -14.949018805         2.650765603
       175           87.500000         0.000332554        10.001143031       -14.950860899       -14.949017058         2.548436292
       176           88.000000         0.000431203        12.967901260       -14.950960787       -14.949017903         2.425006630
       177           88.500000         0.000675906        20.327055028       -14.951209245       -14.949021173         2.820785414
       178           89.000000         0.001015939        30.553110892       -14.951554806       -14.949026069         2.809129393
       179           89.500000         0.001375849        41.376983795       -14.951920752       -14.949031307         3.174859675
       180           90.000000         0.001675528        50.389450438       -14.952225485       -14.949035410         2.113000110
       181           90.500000         0.001853008        55.726949528       -14.952405761       -14.949037118         3.154260159
       182           91.000000         0.001883596        56.646853209       -14.952436239       -14.949035831         2.935273744
       183           91.500000         0.001788523        53.787638271       -14.952338454       -14.949031933         2.462080840
       184           92.000000         0.001628479        48.974500130       -14.952174379       -14.949026788         2.659747483
       185           92.500000         0.001482473        44.583560743       -14.952024894       -14.949022312         2.708973458
       186           93.000000         0.001418819        42.669248095       -14.951960033       -14.949020216         2.350355893
       187           93.500000         0.001469483        44.192910970       -14.952012592       -14.949021277         2.364912413
       188           94.000000         0.001618447        48.672802635       -14.952166139       -14.949025014         2.722911386
       189           94.500000         0.001808822        54.398108092       -14.952362358       -14.949029937         2.654141389
       190           95.000000         0.001965232        59.101959681       -14.952524056       -14.949034191         2.651915343
       191           95.500000         0.002021856        60.804841167       -14.952583927       -14.949036290         1.803830782
       192           96.000000         0.001945312        58.502877905       -14.952507897       -14.949035595         2.752989285
       193           96.500000         0.001744950        52.477242619       -14.952305525       -14.949032416         2.174064100
       194           97.000000         0.001468630        44.167246117       -14.952025595       -14.949027785         2.515358875
       195           97.500000         0.001187053        35.699156812       -14.951740116       -14.949023079         2.642709851
       196           98.000000         0.000972537        29.247863694       -14.951522718       -14.949019611         2.890612332
       197           98.500000         0.000878546        26.421185602       -14.951427848       -14.949018311         2.780924628
       198           99.000000         0.000925111        27.821579933       -14.951475951       -14.949019528         2.764814280
       199           99.500000         0.001093406        32.882858124       -14.951647938       -14.949022953         2.664468162
       200          100.000000         0.001330656        40.017846533       -14.951890142       -14.949027672         2.550693145
       201          100.500000         0.001564503        47.050526383       -14.952128890       -14.949032352         2.514197882
       202          101.000000         0.001723769        51.840234926       -14.952291601       -14.949035569         2.303096322
       203          101.500000         0.001760341        52.940094697       -14.952329092       -14.949036239         1.938222187
       204          102.000000         0.001665455        50.086515751       -14.952232274       -14.949034049         2.759509079
       205          102.500000         0.001473966        44.327728670       -14.952036652       -14.949029683         2.535026720
       206          103.000000         0.001253418        37.694999796       -14.951811272       -14.949024683         2.586199369
       207          103.500000         0.001080407        32.491910787       -14.951634567       -14.949020902         2.374275699
       208          104.000000         0.001012670        30.454822451       -14.951565670       -14.949019736         2.737209193
       209          104.500000         0.001067976        32.118068465       -14.951622742       -14.949021577         2.431993956
       210          105.000000         0.001218425        36.642652495       -14.951777085       -14.949025632         2.660185507
       211          105.500000         0.001402113        42.166839201       -14.951965214       -14.949030325         2.236308800
       212          106.000000         0.001546796        46.518007301       -14.952113193       -14.949033947         2.817435538
       213          106.500000         0.001595944        47.996052700       -14.952163306       -14.949035280         2.112865901
       214          107.000000         0.001527740        45.944907422       -14.952093399       -14.949033951         2.769865820
       215          107.500000         0.001361303        40.939511661       -14.951923094       -14.949030452         2.562362101
       216          108.000000         0.001149470        34.568900764       -14.951706347       -14.949025899         2.355216371
       217          108.500000         0.000961776        28.924244886       -14.951514044       -14.949021655         2.764443494
       218          109.000000         0.000863422        25.966355782       -14.951412586       -14.949018939         2.457319489
       219          109.500000         0.000896247        26.953541809       -14.951444564       -14.949018543         2.438184353
       220          110.000000         0.001066504        32.073794882       -14.951616295       -14.949020606         2.736167409
       221          110.500000         0.001342312        40.368392580       -14.951895335       -14.949024635         2.905038862
       222          111.000000         0.001661571        49.969704761       -14.952218472       -14.949029552         2.719658645
       223          111.500000         0.001948781        58.607197713       -14.952508845       -14.949033948         2.931437146
       224          112.000000         0.002136848        64.263076328       -14.952698121       -14.949036470         2.050031858
       225          112.500000         0.002187813        65.795791904       -14.952747630       -14.949036271         3.041132543
       226          113.000000         0.002105508        63.320590289       -14.952661334       -14.949033383         2.830048025
       227          113.500000         0.001934628        58.181568112       -14.952484962       -14.949028815         2.751691636