#     Step Nr.          Time[fs]        Kin.[a.u.]          Temp[K]            Pot.[a.u.]        Cons Qty[a.u.]        UsedTime[s]
         0            0.000000         0.001662578        50.000000000       -14.953211780       -14.951470032         0.000000000
         1            0.500000         0.001583636        47.625924821       -14.953139232       -14.951469400         7.179773005
         2            1.000000         0.001427198        42.921220949       -14.952987515       -14.951467612         1.236662244
         3            1.500000         0.001221749        36.742600639       -14.952785320       -14.951465170         1.268477951
         4            2.000000         0.001005515        30.239618573       -14.952571424       -14.951462771         1.272867657
         5            2.500000         0.000815682        24.530622797       -14.952383719       -14.951461093         1.286306033
         6            3.000000         0.000678076        20.392315556       -14.952248644       -14.951460572         1.255451663
         7            3.500000         0.000600641        18.063528214       -14.952174431       -14.951461255         1.313692586
         8            4.000000         0.000572905        17.229406738       -14.952150481       -14.951462782         1.273704262
         9            4.500000         0.000571630        17.191078264       -14.952153069       -14.951464514         1.338227729
        10            5.000000         0.000570610        17.160386322       -14.952155351       -14.951465762         1.007373302
        11            5.500000         0.000551120        16.574259555       -14.952138084       -14.951466037         1.051990405
        12            6.000000         0.000509327        15.317396249       -14.952097247       -14.951465220         1.301269097
        13            6.500000         0.000457996        13.773663218       -14.952045850       -14.951463603         1.188845113
        14            7.000000         0.000421867        12.687139956       -14.952009267       -14.951461798         1.257227722
        15            7.500000         0.000428331        12.881521066       -14.952015687       -14.951460512         1.229695940
        16            8.000000         0.000496693        14.937439477       -14.952085112       -14.951460289         1.261586748
        17            8.500000         0.000629958        18.945224353       -14.952220889       -14.951461313         1.204413036
        18            9.000000         0.000812109        24.423188080       -14.952406887       -14.951463340         1.307895130
        19            9.500000         0.001011837        30.429773862       -14.952611285       -14.951465796         1.229816086
        20           10.000000         0.001191321        35.827522511       -14.952795545       -14.951467978         1.310434087
        21           10.500000         0.001316980        39.606566088       -14.952925401       -14.951469288         0.963996916
        22           11.000000         0.001368721        41.162621387       -14.952980296       -14.951469399         1.017054245
        23           11.500000         0.001344932        40.447183050       -14.952958487       -14.951468350         1.007024509
        24           12.000000         0.001261934        37.951112834       -14.952876512       -14.951466506         1.279125364
        25           12.500000         0.001148251        34.532229611       -14.952763374       -14.951464453         1.291830417
        26           13.000000         0.001035544        31.142731718       -14.952651325       -14.951462817         1.271176409
        27           13.500000         0.000949024        28.540748364       -14.952566066       -14.951462065         1.310930040
        28           14.000000         0.000900326        27.076197968       -14.952519460       -14.951462355         1.263936930
        29           14.500000         0.000885138        26.619447377       -14.952507069       -14.951463488         1.241788542
        30           15.000000         0.000886316        26.654856848       -14.952511306       -14.951464977         1.259976428
        31           15.500000         0.000881372        26.506185173       -14.952509089       -14.951466213         1.252641145
        32           16.000000         0.000851763        25.615735873       -14.952481332       -14.951466681         1.186354217
        33           16.500000         0.000790728        23.780166742       -14.952420990       -14.951466140         0.970413048
        34           17.000000         0.000706909        21.259420259       -14.952336795       -14.951464712         1.248182368
        35           17.500000         0.000622347        18.716326037       -14.952251241       -14.951462861         1.250005565
        36           18.000000         0.000565361        17.002533848       -14.952193325       -14.951461235         1.244808430
        37           18.500000         0.000560693        16.862150032       -14.952188445       -14.951460435         1.266891972
        38           19.000000         0.000620392        18.657542930       -14.952249044       -14.951460796         1.241046574
        39           19.500000         0.000738763        22.217387843       -14.952369417       -14.951462260         1.299096884
        40           20.000000         0.000893216        26.862373142       -14.952526574       -14.951464406         1.241936958
        41           20.500000         0.001050680        31.597918359       -14.952686811       -14.951466601         0.995876394
        42           21.000000         0.001177233        35.403852522       -14.952815565       -14.951468219         1.061477356
        43           21.500000         0.001247719        37.523632271       -14.952887236       -14.951468838         0.951075023
        44           22.000000         0.001252368        37.663425405       -14.952891918       -14.951468349         0.974085832
        45           22.500000         0.001198561        36.045248344       -14.952837180       -14.951466965         1.261980915
        46           23.000000         0.001107453        33.305307464       -14.952744635       -14.951465164         1.290365745
        47           23.500000         0.001006638        30.273414829       -14.952642450       -14.951463529         1.198536189
        48           24.000000         0.000921175        27.703210835       -14.952556194       -14.951462571         1.266895079
        49           24.500000         0.000865811        26.038214491       -14.952500888       -14.951462554         1.270386309
        50           25.000000         0.000840933        25.290016899       -14.952476858       -14.951463412         1.268063118
        51           25.500000         0.000833609        25.069768987       -14.952470797       -14.951464767         1.273725102
        52           26.000000         0.000823413        24.763124573       -14.952461711       -14.951466053         1.261854123
        53           26.500000         0.000791026        23.789130515       -14.952429735       -14.951466717         1.008050289
        54           27.000000         0.000726633        21.852612474       -14.952364728       -14.951466421         0.983723300
        55           27.500000         0.000635085        19.099400015       -14.952271560       -14.951465167         1.413445479
        56           28.000000         0.000535790        16.113227097       -14.952170028       -14.951463317         1.269122076
        57           28.500000         0.000457120        13.747322324       -14.952089129       -14.951461485         2.011660936
        58           29.000000         0.000427080        12.843898563       -14.952057502       -14.951460319         1.270539787
        59           29.500000         0.000463499        13.939154522       -14.952093366       -14.951460258         1.270369574
        60           30.000000         0.000567352        17.062426520       -14.952197679       -14.951461368         1.234210110
        61           30.500000         0.000721705        21.704385852       -14.952353080       -14.951463319         1.243824948
        62           31.000000         0.000896611        26.964488187       -14.952528953       -14.951465518         1.206374200
        63           31.500000         0.001058085        31.820621206       -14.952690648       -14.951467326         1.260563826
        64           32.000000         0.001177890        35.423603458       -14.952809486       -14.951468269         1.214702396
        65           32.500000         0.001240914        37.318977803       -14.952870262       -14.951468171         1.267639546
        66           33.000000         0.001247991        37.531798981       -14.952874064       -14.951467189         1.296849587
        67           33.500000         0.001213653        36.499138381       -14.952835926       -14.951465733         1.253120344
        68           34.000000         0.001159891        34.882309129       -14.952778419       -14.951464330         1.236654808
        69           34.500000         0.001108095        33.324610917       -14.952723417       -14.951463447         1.287418772
        70           35.000000         0.001071812        32.233434151       -14.952684718       -14.951463355         1.245054443
        71           35.500000         0.001052600        31.655663950       -14.952663827       -14.951464031         1.284237050
        72           36.000000         0.001040270        31.284851814       -14.952650230       -14.951465181         1.266312328
        73           36.500000         0.001017381        30.596490584       -14.952626016       -14.951466328         1.329648191
        74           37.000000         0.000966516        29.066795410       -14.952573316       -14.951466971         0.988531946
        75           37.500000         0.000877921        26.402394731       -14.952482110       -14.951466762         1.054600710
        76           38.000000         0.000754905        22.702850618       -14.952355738       -14.951465626         1.205494167
        77           38.500000         0.000614986        18.494948065       -14.952212054       -14.951463813         1.192230939
        78           39.000000         0.000486028        14.616696988       -14.952079469       -14.951461838         1.249918683
        79           39.500000         0.000398372        11.980561009       -14.951988894       -14.951460319         1.268770253
        80           40.000000         0.000375465        11.291635734       -14.951964125       -14.951459753         1.226153674
        81           40.500000         0.000426270        12.819540351       -14.952014092       -14.951460333         1.260217903
        82           41.000000         0.000542253        16.307589973       -14.952129816       -14.951461875         1.254515055
        83           41.500000         0.000700010        21.051943840       -14.952287180       -14.951463896         1.259268917
        84           42.000000         0.000868504        26.119205239       -14.952454403       -14.951465790         0.981414390
        85           42.500000         0.001018233        30.622099326       -14.952601450       -14.951467040         0.959469922
        86           43.000000         0.001129211        33.959626241       -14.952708168       -14.951467378         1.004387945
        87           43.500000         0.001195342        35.948445515       -14.952768657       -14.951466835         1.253398027
        88           44.000000         0.001224078        36.812640761       -14.952790851       -14.951465717         1.334623322
        89           44.500000         0.001231850        37.046391327       -14.952791775       -14.951464491         1.270140910
        90           45.000000         0.001236962        37.200108270       -14.952790255       -14.951463630         1.296172659
        91           45.500000         0.001252294        37.661206974       -14.952799483       -14.951463461         1.279405775
        92           46.000000         0.001280219        38.501025622       -14.952821846       -14.951464057         1.280244820
        93           46.500000         0.001311372        39.437911694       -14.952847733       -14.951465214         1.242255162
        94           47.000000         0.001327732        39.929912775       -14.952858727       -14.951466506         1.223768350
        95           47.500000         0.001309082        39.369042404       -14.952834231       -14.951467429         0.967147896
        96           48.000000         0.001240788        37.315174249       -14.952759406       -14.951467563         0.926801892
        97           48.500000         0.001120323        33.692341422       -14.952631811       -14.951466722         0.970902956
        98           49.000000         0.000960210        28.877154359       -14.952464346       -14.951465034         1.239949995
        99           49.500000         0.000786028        23.638817685       -14.952283190       -14.951462933         1.228885089
       100           50.000000         0.000629785        18.940026892       -14.952120988       -14.951461037         1.247441866
       101           50.500000         0.000520653        15.657993418       -14.952007332       -14.951459918         1.266829615
       102           51.000000         0.000476163        14.320009870       -14.951959780       -14.951459903         1.250354895
       103           51.500000         0.000497135        14.950715211       -14.951978717       -14.951460943         1.265568057
       104           52.000000         0.000568211        17.088238962       -14.952048013       -14.951462636         1.244040733
       105           52.500000         0.000663749        19.961440321       -14.952141163       -14.951464383         1.284343818
       106           53.000000         0.000756773        22.759035587       -14.952230525       -14.951465618         1.228724965
       107           53.500000         0.000827647        24.890468425       -14.952296179       -14.951466000         1.244484510
       108           54.000000         0.000869480        26.148550484       -14.952331384       -14.951465510         1.260171477
       109           54.500000         0.000888670        26.725660984       -14.952342997       -14.951464436         1.287915441
       110           55.000000         0.000900763        27.089342289       -14.952347141       -14.951463248         1.214211763
       111           55.500000         0.000923390        27.769833285       -14.952361913       -14.951462428         1.252609096
       112           56.000000         0.000968860        29.137287928       -14.952399816       -14.951462307         1.285956405
       113           56.500000         0.001038928        31.244474572       -14.952462487       -14.951462963         1.253900707
       114           57.000000         0.001123402        33.784934295       -14.952539374       -14.951464200         1.253658902
       115           57.500000         0.001202951        36.177266395       -14.952610694       -14.951465619         1.238814062
       116           58.000000         0.001255152        37.747151950       -14.952653672       -14.951466737         1.011372252
       117           58.500000         0.001261909        37.950380933       -14.952650100       -14.951467141         0.967256107
       118           59.000000         0.001215966        36.568688439       -14.952592924       -14.951466615         1.332725920
       119           59.500000         0.001124408        33.815199003       -14.952489726       -14.951465223         1.263500034
       120           60.000000         0.001007817        30.308851055       -14.952361758       -14.951463317         1.295052591
       121           60.500000         0.000894977        26.915348560       -14.952238466       -14.951461448         1.281510405
       122           61.000000         0.000814555        24.496733405       -14.952148934       -14.951460178         1.444622363
       123           61.500000         0.000786426        23.650790288       -14.952113045       -14.951459886         1.243970015
       124           62.000000         0.000815775        24.533444992       -14.952135522       -14.951460615         1.236180888
       125           62.500000         0.000892167        26.830835665       -14.952205121       -14.951462057         1.222995268
       126           63.000000         0.000993920        29.890940115       -14.952299267       -14.951463676         1.231327673
       127           63.500000         0.001096044        32.962183271       -14.952392275       -14.951464918         0.975575968
       128           64.000000         0.001178689        35.447617865       -14.952464011       -14.951465408         0.944939829
       129           64.500000         0.001233103        37.084076331       -14.952505880       -14.951465066         1.230682638
       130           65.000000         0.001263181        37.988608118       -14.952522259       -14.951464109         1.243338319
       131           65.500000         0.001282376        38.565893393       -14.952527215       -14.951462966         1.277714653
       132           66.000000         0.001307373        39.317636752       -14.952537940       -14.951462112         1.222649055
       133           66.500000         0.001350805        40.623818058       -14.952567308       -14.951461906         1.289749992
       134           67.000000         0.001415562        42.571302704       -14.952618139       -14.951462480         1.240811371
       135           67.500000         0.001492514        44.885539320       -14.952681002       -14.951463698         1.288325380
       136           68.000000         0.001562371        46.986402971       -14.952736236       -14.951465199         1.214558331
       137           68.500000         0.001601101        48.151147861       -14.952759547       -14.951466504         1.238745920
       138           69.000000         0.001587326        47.736879461       -14.952729554       -14.951467153         0.995626238
       139           69.500000         0.001509532        45.397326193       -14.952635068       -14.951466850         0.993875224
       140           70.000000         0.001370894        41.227968368       -14.952479887       -14.951465562         1.250828936
       141           70.500000         0.001189971        35.786915124       -14.952283376       -14.951463561         1.232928628
       142           71.000000         0.000996608        29.971765146       -14.952076192       -14.951461380         1.281045348
       143           71.500000         0.000823939        24.778947156       -14.951892045       -14.951459640         1.226956106
       144           72.000000         0.000698876        21.017851638       -14.951757982       -14.951458834         1.295245272
       145           72.500000         0.000634458        19.080549031       -14.951686639       -14.951459135         1.224850642
       146           73.000000         0.000626986        18.855846204       -14.951673463       -14.951460315         1.310025162
       147           73.500000         0.000659159        19.823404960       -14.951700092       -14.951461835         1.285915262
       148           74.000000         0.000707953        21.290817833       -14.951742569       -14.951463069         1.340633810
       149           74.500000         0.000754100        22.678633617       -14.951781080       -14.951463543         1.240097176
       150           75.000000         0.000789452        23.741789536       -14.951807412       -14.951463114         1.323281223
       151           75.500000         0.000819487        24.645081237       -14.951827367       -14.951462007         1.254259629
       152           76.000000         0.000860216        25.869947075       -14.951857424       -14.951460715         1.269222441
       153           76.500000         0.000930858        27.994429516       -14.951917154       -14.951459806         1.245041585
       154           77.000000         0.001045218        31.433638918       -14.952020390       -14.951459703         1.267125706
       155           77.500000         0.001204966        36.237877708       -14.952168468       -14.951460542         1.296489422
       156           78.000000         0.001397191        42.018802330       -14.952347903       -14.951462138         1.282897213
       157           78.500000         0.001596882        48.024259572       -14.952533097       -14.951464059         1.232656506
       158           79.000000         0.001773353        53.331412181       -14.952693003       -14.951465772         1.245893328
       159           79.500000         0.001898502        57.095129099       -14.952799525       -14.951466795         0.934070096
       160           80.000000         0.001954485        58.778743008       -14.952835238       -14.951466829         0.952825605
       161           80.500000         0.001938684        58.303546283       -14.952798273       -14.951465841         1.250102011
       162           81.000000         0.001864491        56.072294631       -14.952702957       -14.951464090         1.224237498
       163           81.500000         0.001757424        52.852382717       -14.952575746       -14.951462084         1.258319024
       164           82.000000         0.001647414        49.543959502       -14.952447308       -14.951460428         1.251475773
       165           82.500000         0.001559507        46.900268169       -14.952343041       -14.951459618         1.227812886
       166           83.000000         0.001506174        45.296343470       -14.952275292       -14.951459843         1.187309218
       167           83.500000         0.001484189        44.635180330       -14.952240299       -14.951460902         1.231976516
       168           84.000000         0.001477437        44.432099640       -14.952221198       -14.951462275         1.243937914
       169           84.500000         0.001464575        44.045312997       -14.952195980       -14.951463340         0.971548636
       170           85.000000         0.001428474        42.959617696       -14.952147168       -14.951463621         0.947102910
       171           85.500000         0.001363695        41.011456932       -14.952069383       -14.951462959         1.318733804
       172           86.000000         0.001279178        38.469724699       -14.951971966       -14.951461567         1.255744593
       173           86.500000         0.001195285        35.946726755       -14.951875822       -14.951459936         1.282636167
       174           87.000000         0.001136495        34.178707533       -14.951805871       -14.951458645         1.270882880
       175           87.500000         0.001122565        33.759780267       -14.951782009       -14.951458150         2.188726615
       176           88.000000         0.001161348        34.926121808       -14.951811862       -14.951458633         1.356325733
       177           88.500000         0.001245680        37.462305969       -14.951887741       -14.951459958         1.329223991
       178           89.000000         0.001355132        40.753947257       -14.951988572       -14.951461739         1.232992292
       179           89.500000         0.001461788        43.961471649       -14.952085882       -14.951463464         1.317741941
       180           90.000000         0.001538117        46.256996816       -14.952151831       -14.951464647         1.245249310
       181           90.500000         0.001564680        47.055842365       -14.952166979       -14.951464948         1.284863668
       182           91.000000         0.001535591        46.181012750       -14.952125749       -14.951464267         1.230453126
       183           91.500000         0.001460266        43.915723898       -14.952038095       -14.951462779         1.265584712
       184           92.000000         0.001360772        40.923553646       -14.951926733       -14.951460917         1.247104326
       185           92.500000         0.001265195        38.049187390       -14.951820356       -14.951459257         1.281431457
       186           93.000000         0.001198818        36.052998857       -14.951744622       -14.951458330         1.233686619
       187           93.500000         0.001175943        35.365060218       -14.951713844       -14.951458420         1.259141202
       188           94.000000         0.001195426        35.950980261       -14.951726492       -14.951459440         1.183391697
       189           94.500000         0.001241906        37.348794293       -14.951766531       -14.951460943         1.260101420
       190           95.000000         0.001292494        38.870185735       -14.951810344       -14.951462289         1.233632663
       191           95.500000         0.001326438        39.890997467       -14.951836654       -14.951462899         1.236045592
       192           96.000000         0.001333934        40.116418352       -14.951835519       -14.951462491         1.220977005
       193           96.500000         0.001320560        39.714237198       -14.951812796       -14.951461194         1.287208610
       194           97.000000         0.001305484        39.260832995       -14.951788203       -14.951459501         1.237945389
       195           97.500000         0.001314084        39.519454984       -14.951787717       -14.951458080         1.269154589
       196           98.000000         0.001367891        41.137655441       -14.951833240       -14.951457501         1.230205906
       197           98.500000         0.001475789        44.382560666       -14.951933648       -14.951458027         1.295865394
       198           99.000000         0.001629802        49.014297251       -14.952080588       -14.951459523         1.234168353
       199           99.500000         0.001806830        54.338199860       -14.952250382       -14.951461542         1.237586703
       200          100.000000         0.001975330        59.405630163       -14.952410935       -14.951463495         1.265121601
       201          100.500000         0.002104335        63.285294662       -14.952530951       -14.951464848         0.994175452
       202          101.000000         0.002171882        65.316704418       -14.952588447       -14.951465262         0.987462599
       203          101.500000         0.002170565        65.277087940       -14.952576285       -14.951464659         1.201780418
       204          102.000000         0.002108900        63.422584146       -14.952503476       -14.951463237         1.287148081
       205          102.500000         0.002008266        60.396149537       -14.952392019       -14.951461436         1.222387431
       206          103.000000         0.001896139        57.024051216       -14.952270001       -14.951459816         1.305152203
       207          103.500000         0.001797360        54.053389831       -14.952162714       -14.951458896         1.223165903
       208          104.000000         0.001726164        51.912278576       -14.952084538       -14.951458955         1.289984656
       209          104.500000         0.001681905        50.581234435       -14.952034590       -14.951459902         1.261126469
       210          105.000000         0.001650430        49.634666277       -14.951998156       -14.951461279         1.326913756
       211          105.500000         0.001610948        48.447300906       -14.951953770       -14.951462436         1.275569404
       212          106.000000         0.001545839        46.489209405       -14.951883273       -14.951462796         1.305208599
       213          106.500000         0.001449450        43.590431166       -14.951780824       -14.951462090         1.260959704
       214          107.000000         0.001332251        40.065810049       -14.951657111       -14.951460474         1.273923387
       215          107.500000         0.001218537        36.645998472       -14.951536949       -14.951458471         1.244616462
       216          108.000000         0.001138499        34.238960984       -14.951451153       -14.951456794         1.251351725
       217          108.500000         0.001117726        33.614237592       -14.951425714       -14.951456022         1.256899339
       218          109.000000         0.001168166        35.131153831       -14.951472620       -14.951456423         1.278115660
       219          109.500000         0.001283882        38.611185550       -14.951585572       -14.951457865         1.249286719
       220          110.000000         0.001442847        43.391855852       -14.951741921       -14.951459893         1.234120045
       221          110.500000         0.001613661        48.528890055       -14.951909630       -14.951461929         1.222510179
       222          111.000000         0.001764561        53.067006027       -14.952056441       -14.951463422         1.200364172
       223          111.500000         0.001871765        56.291028002       -14.952158391       -14.951464042         1.253191482
       224          112.000000         0.001924969        57.891072073       -14.952205284       -14.951463702         1.244195633
       225          112.500000         0.001928828        58.007138568       -14.952202128       -14.951462577         1.239454736
       226          113.000000         0.001900262        57.148052720       -14.952166360       -14.951461063         1.257262099
       227          113.500000         0.001862291        56.006119701       -14.952121566       -14.951459675         1.234582077