       8
 i =        0, time =        0.000, E =       -14.9532117800
  C        -0.0037292767       -0.0016966186       -0.0005776923
  C         0.0031127806        0.0013450159        0.0001703890
  H        -0.0007008689        0.0010656774       -0.0004767966
  H        -0.0003219218       -0.0003999812        0.0014312007
  H         0.0000470457       -0.0008794516       -0.0008308410
  H         0.0008772589       -0.0009058233        0.0004434412
  H         0.0001161533        0.0008497809        0.0008532964
  H         0.0006131651        0.0005805191       -0.0009880678
       8
 i =        1, time =        0.500, E =       -14.9531392323
  C        -0.0030767208       -0.0043424085        0.0027719329
  C         0.0023508074        0.0007161982       -0.0007229029
  H        -0.0010444611        0.0036907417       -0.0013260910
  H        -0.0017255837       -0.0002598459       -0.0002364763
  H         0.0001354162       -0.0012832085       -0.0017412343
  H         0.0009201128        0.0004948140       -0.0005433771
  H         0.0007504032        0.0011041830        0.0009700965
  H         0.0017047384       -0.0001629000        0.0008537629
       8
 i =        2, time =        1.000, E =       -14.9529875147
  C        -0.0023361035       -0.0066854518        0.0059197950
  C         0.0015887859        0.0001157445       -0.0015326421
  H        -0.0013980530        0.0059463872       -0.0020817161
  H        -0.0030812428       -0.0001208189       -0.0018815459
  H         0.0001486568       -0.0016012156       -0.0025601947
  H         0.0009477622        0.0018702071       -0.0015106991
  H         0.0014015622        0.0013193415        0.0010457907
  H         0.0027436244       -0.0008880580        0.0026278392
       8
 i =        3, time =        1.500, E =       -14.9527853202
  C        -0.0015573222       -0.0085816902        0.0086083460
  C         0.0009052414       -0.0003592321       -0.0021419321
  H        -0.0017532590        0.0076677445       -0.0026986042
  H        -0.0043135370        0.0000061716       -0.0033290873
  H         0.0000600983       -0.0018035095       -0.0032487704
  H         0.0009582055        0.0030940746       -0.0024116454
  H         0.0020533717        0.0014966933        0.0010860262
  H         0.0036624672       -0.0015655042        0.0041634184
       8
 i =        4, time =        2.000, E =       -14.9525714236
  C        -0.0007952574       -0.0099287293        0.0106094289
  C         0.0003739131       -0.0006183437       -0.0024463724
  H        -0.0020995662        0.0087390240       -0.0031434620
  H        -0.0053536345        0.0001116728       -0.0044137981
  H        -0.0001476827       -0.0018690638       -0.0037763846
  H         0.0009498194        0.0040480757       -0.0032027613
  H         0.0026873388        0.0016399191        0.0010986680
  H         0.0044002511       -0.0021689583        0.0053036122
       8
 i =        5, time =        2.500, E =       -14.9523837189
  C        -0.0001028292       -0.0106637502        0.0117483864
  C         0.0000561072       -0.0005894851       -0.0023695900
  H        -0.0024256835        0.0090918748       -0.0033948103
  H        -0.0061468718        0.0001887859       -0.0050021243
  H        -0.0004810931       -0.0017872484       -0.0041223191
  H         0.0009214267        0.0046355199       -0.0038479795
  H         0.0032839188        0.0017543783        0.0010929361
  H         0.0049095867       -0.0026773934        0.0059258378
       8
 i =        6, time =        3.000, E =       -14.9522486441
  C         0.0004762962       -0.0107606603        0.0119257758
  C        -0.0000061996       -0.0002298406       -0.0018770583
  H        -0.0027207720        0.0087030743       -0.0034427813
  H        -0.0066590469        0.0002340555       -0.0050124682
  H        -0.0009345699       -0.0015587475       -0.0042781694
  H         0.0008723934        0.0047936405       -0.0043219166
  H         0.0038230757        0.0018470105        0.0010791671
  H         0.0051624006       -0.0030765375        0.0059591733
       8
 i =        7, time =        3.500, E =       -14.9521744310
  C         0.0009121982       -0.0102283018        0.0111315346
  C         0.0002049879        0.0004665309       -0.0009841390
  H        -0.0029754343        0.0075929520       -0.0032890720
  H        -0.0068800366        0.0002478445       -0.0044284577
  H        -0.0014904418       -0.0011956973       -0.0042483194
  H         0.0008027187        0.0045021040       -0.0046119888
  H         0.0042847785        0.0019257598        0.0010681752
  H         0.0051534254       -0.0033594858        0.0053952790
       8
 i =        8, time =        4.000, E =       -14.9521504810
  C         0.0011899351       -0.0091111456        0.0094483654
  C         0.0006825838        0.0014661235        0.0002442331
  H        -0.0031825007        0.0058260244       -0.0029472248
  H        -0.0068239985        0.0002341062       -0.0033019933
  H        -0.0021193749       -0.0007213193       -0.0040501463
  H         0.0007131378        0.0037855881       -0.0047189750
  H         0.0046503213        0.0019987156        0.0010702924
  H         0.0049002530       -0.0035263605        0.0042896081
       8
 i =        9, time =        4.500, E =       -14.9521530693
  C         0.0013077627       -0.0074918940        0.0070431938
  C         0.0013966016        0.0026991649        0.0017022418
  H        -0.0033377028        0.0035131358       -0.0024432232
  H        -0.0065258744        0.0001995981       -0.0017451560
  H        -0.0027817421       -0.0001686590       -0.0037131793
  H         0.0006051940        0.0027107305       -0.0046559782
  H         0.0049036578        0.0020731580        0.0010941789
  H         0.0044401590       -0.0035832030        0.0027528557
       8
 i =       10, time =        5.000, E =       -14.9521553513
  C         0.0012733206       -0.0054944221        0.0041482672
  C         0.0022990623        0.0040678557        0.0032579456
  H        -0.0034402840        0.0008133768       -0.0018158609
  H        -0.0060354195        0.0001527640        0.0000869797
  H        -0.0034298722        0.0004213950       -0.0032768282
  H         0.0004813436        0.0013777089       -0.0044460890
  H         0.0050325776        0.0021546034        0.0011458022
  H         0.0038245993       -0.0035404062        0.0009349664
       8
 i =       11, time =        5.500, E =       -14.9521380841
  C         0.0011002025       -0.0032835842        0.0010355679
  C         0.0033295650        0.0054593455        0.0047719706
  H        -0.0034929815       -0.0020687612       -0.0011159249
  H        -0.0054102675        0.0001026128        0.0020174117
  H        -0.0040117313        0.0010037050       -0.0027865474
  H         0.0003446571       -0.0000932578       -0.0041188741
  H         0.0050307208        0.0022452181        0.0012267005
  H         0.0031120669       -0.0034109771       -0.0009953635
       8
 i =       12, time =        6.000, E =       -14.9520972467
  C         0.0008048445       -0.0010607175       -0.0020099467
  C         0.0044217690        0.0067564956        0.0061121662
  H        -0.0035020206       -0.0048906414       -0.0004039717
  H        -0.0047097002        0.0000576486        0.0038677918
  H        -0.0044747594        0.0015318871       -0.0022898264
  H         0.0001990105       -0.0015732450       -0.0037076996
  H         0.0048973187        0.0023439347        0.0013341158
  H         0.0023624831       -0.0032092806       -0.0028684333
       8
 i =       13, time =        6.500, E =       -14.9520458503
  C         0.0004044120        0.0009528350       -0.0047202177
  C         0.0055087341        0.0078519536        0.0071671965
  H        -0.0034765880       -0.0073918303        0.0002546888
  H        -0.0039884827        0.0000250766        0.0054789729
  H        -0.0047709587        0.0019631326       -0.0018317695
  H         0.0000486855       -0.0029389415       -0.0032458833
  H         0.0046382318        0.0024458079        0.0014605158
  H         0.0016315659       -0.0029496885       -0.0045304843
       8
 i =       14, time =        7.000, E =       -14.9520092670
  C        -0.0000816591        0.0025384334       -0.0068651369
  C         0.0065257635        0.0086561922        0.0078543574
  H        -0.0034269170       -0.0093214024        0.0007973203
  H        -0.0032945173        0.0000104219        0.0067189720
  H        -0.0048620469        0.0022627283       -0.0014490758
  H        -0.0001019702       -0.0040813586       -0.0027647756
  H         0.0042662415        0.0025417648        0.0015932716
  H         0.0009673511       -0.0026459970       -0.0058534210
       8
 i =       15, time =        7.500, E =       -14.9520156868
  C        -0.0006315568        0.0035115015       -0.0082730869
  C         0.0074137780        0.0091036566        0.0081221117
  H        -0.0033627002       -0.0104725502        0.0011723856
  H        -0.0026663913        0.0000172711        0.0074916402
  H        -0.0047234587        0.0024076301       -0.0011666534
  H        -0.0002487542       -0.0049131323       -0.0022918275
  H         0.0037998367        0.0026197385        0.0017161825
  H         0.0004083060       -0.0023109125       -0.0067409745
       8
 i =       16, time =        8.000, E =       -14.9520851116
  C        -0.0012203149        0.0037519028       -0.0088440145
  C         0.0081212686        0.0091555584        0.0079498388
  H        -0.0032911306       -0.0107156369        0.0013477428
  H        -0.0021325251        0.0000472329        0.0077389262
  H        -0.0043476790        0.0023890914       -0.0009946782
  H        -0.0003879389       -0.0053726290       -0.0018494932
  H         0.0032621044        0.0026656891        0.0018107722
  H        -0.0000177344       -0.0019558086       -0.0071310032
       8
 i =       17, time =        8.500, E =       -14.9522208891
  C        -0.0018199925        0.0032257355       -0.0085557314
  C         0.0086062592        0.0088004052        0.0073456563
  H        -0.0032154686       -0.0100209380        0.0013159753
  H        -0.0017107957        0.0001000132        0.0074411057
  H        -0.0037455788        0.0022135528       -0.0009281531
  H        -0.0005165243       -0.0054259555       -0.0014544974
  H         0.0026791061        0.0026650138        0.0018580515
  H        -0.0002937433       -0.0015905248       -0.0069958944
       8
 i =       18, time =        9.000, E =       -14.9524068865
  C        -0.0024010811        0.0019915328       -0.0074628682
  C         0.0088385627        0.0080530185        0.0063436839
  H        -0.0031346141       -0.0084641756        0.0010953088
  H        -0.0014082325        0.0001735737        0.0066161119
  H        -0.0029455222        0.0019017547       -0.0009480186
  H        -0.0006324599       -0.0050677505       -0.0011173529
  H         0.0020780453        0.0026041048        0.0018404245
  H        -0.0004140299       -0.0012231298       -0.0063421977
       8
 i =       19, time =        9.500, E =       -14.9526112848
  C        -0.0029350493        0.0001889195       -0.0056890338
  C         0.0088022974        0.0069526836        0.0050015159
  H        -0.0030437161       -0.0062129869        0.0007257195
  H        -0.0012203628        0.0002643957        0.0053184002
  H        -0.0019908105        0.0014862293       -0.0010239979
  H        -0.0007348081       -0.0043211879       -0.0008420022
  H         0.0014853818        0.0024718526        0.0017435194
  H        -0.0003844777       -0.0008596182       -0.0052101858
       8
 i =       20, time =       10.000, E =       -14.9527955452
  C        -0.0033976949       -0.0019863808       -0.0034137893
  C         0.0084984221        0.0055606868        0.0033979610
  H        -0.0029356607       -0.0034987320        0.0002616401
  H        -0.0011309631        0.0003677061        0.0036372935
  H        -0.0009361277        0.0010075668       -0.0011190831
  H        -0.0008237978       -0.0032366726       -0.0006255652
  H         0.0009250507        0.0022609281        0.0015577981
  H        -0.0002228505       -0.0005035158       -0.0036732048
       8
 i =       21, time =       10.500, E =       -14.9529254011
  C        -0.0037731989       -0.0043134858       -0.0008563746
  C         0.0079469659        0.0039572822        0.0016304532
  H        -0.0028028712       -0.0005814544       -0.0002368496
  H        -0.0011116748        0.0004778131        0.0016938577
  H         0.0001581446        0.0005101722       -0.0011941564
  H        -0.0009007565       -0.0018905409       -0.0004583235
  H         0.0004168981        0.0019688505        0.0012797175
  H         0.0000410709       -0.0001555594       -0.0018361973
       8
 i =       22, time =       11.000, E =       -14.9529802956
  C        -0.0040546534       -0.0065751366        0.0017423542
  C         0.0071865042        0.0022365445       -0.0001885691
  H        -0.0026386739        0.0022820645       -0.0007118142
  H        -0.0011231804        0.0005884961       -0.0003654909
  H         0.0012300641        0.0000384835       -0.0012115316
  H        -0.0009682030       -0.0003810246       -0.0003240635
  H        -0.0000248288        0.0015987126        0.0009127430
  H         0.0003659759        0.0001864825        0.0001676237
       8
 i =       23, time =       11.500, E =       -14.9529584871
  C        -0.0042491216       -0.0085785866        0.0041384343
  C         0.0062746032        0.0005021499       -0.0019379126
  H        -0.0024388221        0.0048636050       -0.0011131899
  H        -0.0011173128        0.0006933737       -0.0023772319
  H         0.0022216476       -0.0003675772       -0.0011403721
  H        -0.0010292327        0.0011767249       -0.0002010612
  H        -0.0003915204        0.0011593170        0.0004672827
  H         0.0007014540        0.0005276930        0.0021843015
       8
 i =       24, time =       12.000, E =       -14.9528765124
  C        -0.0043732682       -0.0101670800        0.0061043611
  C         0.0052817160       -0.0011411460       -0.0034964508
  H        -0.0022016462        0.0069765603       -0.0014018612
  H        -0.0010418234        0.0007863556       -0.0041753431
  H         0.0030823202       -0.0006746615       -0.0009582266
  H        -0.0010873387        0.0026591530       -0.0000639940
  H        -0.0006808635        0.0006649280       -0.0000396381
  H         0.0009917602        0.0008751417        0.0040501496
       8
 i =       25, time =       12.500, E =       -14.9527633738
  C        -0.0044493990       -0.0112241448        0.0074506717
  C         0.0042861411       -0.0025958559       -0.0047543167
  H        -0.0019282683        0.0084833103       -0.0015504712
  H        -0.0008478245        0.0008620216       -0.0056103024
  H         0.0037723402       -0.0008587132       -0.0006529637
  H        -0.0011457733        0.0039441820        0.0001131519
  H        -0.0008983516        0.0001352938       -0.0005845475
  H         0.0011812161        0.0012365141        0.0056060182
       8
 i =       26, time =       13.000, E =       -14.9526513250
  C        -0.0045002714       -0.0116715926        0.0080414402
  C         0.0033631888       -0.0037809530       -0.0056261603
  H        -0.0016223007        0.0092931455       -0.0015432341
  H        -0.0004959567        0.0009162189       -0.0065635932
  H         0.0042646960       -0.0009055169       -0.0002237128
  H        -0.0012071047        0.0049236794        0.0003536937
  H        -0.0010540178       -0.0004062770       -0.0011397420
  H         0.0012216437        0.0016180336        0.0067163669
       8
 i =       27, time =       13.500, E =       -14.9525660662
  C        -0.0045424068       -0.0114673673        0.0078102362
  C         0.0025768392       -0.0046402349       -0.0060622742
  H        -0.0012894962        0.0093612500       -0.0013749296
  H         0.0000354735        0.0009463333       -0.0069650327
  H         0.0045464524       -0.0008116831        0.0003194311
  H        -0.0012726212        0.0055152022        0.0006744569
  H        -0.0011634572       -0.0009338534       -0.0016747149
  H         0.0010792808        0.0020223246        0.0072849941
       8
 i =       28, time =       14.000, E =       -14.9525194601
  C        -0.0045813522       -0.0106038627        0.0067674048
  C         0.0019712110       -0.0051482345       -0.0060561632
  H        -0.0009373004        0.0086862172       -0.0010502140
  H         0.0007456083        0.0009515259       -0.0068013481
  H         0.0046191482       -0.0005845146        0.0009561316
  H        -0.0013419861        0.0056712594        0.0010825403
  H        -0.0012451783       -0.0014208873       -0.0021585233
  H         0.0007405809        0.0024464465        0.0072688743
       8
 i =       29, time =       14.500, E =       -14.9525070689
  C        -0.0046100259       -0.0091087302        0.0049990576
  C         0.0015652948       -0.0053128134       -0.0056455422
  H        -0.0005743823        0.0073106910       -0.0005833510
  H         0.0016097553        0.0009328089       -0.0061163326
  H         0.0044984118       -0.0002414962        0.0016571788
  H        -0.0014131449        0.0053853657        0.0015730348
  H        -0.0013187670       -0.0018421475       -0.0025622343
  H         0.0002149459        0.0028809191        0.0066829897
       8
 i =       30, time =       15.000, E =       -14.9525113063
  C        -0.0046106603       -0.0070480009        0.0026576530
  C         0.0013516756       -0.0051733022       -0.0049065678
  H        -0.0002101094        0.0053230657        0.0000016130
  H         0.0025816841        0.0008928625       -0.0050034335
  H         0.0042127688        0.0001906819        0.0023863120
  H        -0.0014825120        0.0046921074        0.0021288012
  H        -0.0014027598       -0.0021758216       -0.0028614050
  H        -0.0004660451        0.0033099089        0.0055978011
       8
 i =       31, time =       15.500, E =       -14.9525090889
  C        -0.0045595790       -0.0045301101       -0.0000541654
  C         0.0012991928       -0.0047948800       -0.0039423070
  H         0.0001461389        0.0028601037        0.0006705121
  H         0.0035996530        0.0008357126       -0.0035911658
  H         0.0038015591        0.0006776404        0.0031023578
  H        -0.0015454409        0.0036624452        0.0027217507
  H        -0.0015120398       -0.0024053717       -0.0030382596
  H        -0.0012528779        0.0037126773        0.0041280278
       8
 i =       32, time =       16.000, E =       -14.9524813318
  C        -0.0044330899       -0.0017081027       -0.0029033794
  C         0.0013585674       -0.0042598981       -0.0028683148
  H         0.0004857012        0.0001075027        0.0013791612
  H         0.0045941656        0.0007663140       -0.0020257143
  H         0.0033119393        0.0011794410        0.0037617331
  H        -0.0015968604        0.0023942424        0.0033158437
  H        -0.0016560846       -0.0025209611       -0.0030832775
  H        -0.0020846673        0.0040659218        0.0024171640
       8
 i =       33, time =       16.500, E =       -14.9524209896
  C        -0.0042124759        0.0012233790       -0.0056473261
  C         0.0014687418       -0.0036580326       -0.0017982391
  H         0.0008014921       -0.0027060853        0.0020745569
  H         0.0054957775        0.0006900895       -0.0004545026
  H         0.0027952068        0.0016532822        0.0043211310
  H        -0.0016319567        0.0010012042        0.0038709826
  H        -0.0018372415       -0.0025204277       -0.0029961800
  H        -0.0028965229        0.0043464376        0.0006198599
       8
 i =       34, time =       17.000, E =       -14.9523367945
  C        -0.0038870682        0.0040390179       -0.0080528899
  C         0.0015671043       -0.0030764993       -0.0008330028
  H         0.0010884479       -0.0053238665        0.0026982748
  H         0.0062409561        0.0006125608        0.0009858580
  H         0.0023011200        0.0020573377        0.0047413899
  H        -0.0016467324       -0.0003991051        0.0043469679
  H        -0.0020511991       -0.0024086793       -0.0027850856
  H        -0.0036262024        0.0045335189       -0.0011135106
       8
 i =       35, time =       17.500, E =       -14.9522512414
  C        -0.0034540219        0.0065057126       -0.0099148495
  C         0.0015888424       -0.0025927782       -0.0000519274
  H         0.0013443000       -0.0074844612        0.0031912738
  H         0.0067785701        0.0005389028        0.0021822301
  H         0.0018754163        0.0023535081        0.0049888583
  H        -0.0016386495       -0.0016955530        0.0047073508
  H        -0.0022852464       -0.0021985590       -0.0024673287
  H        -0.0042195061        0.0046109078       -0.0026489941
       8
 i =       36, time =       18.000, E =       -14.9521933248
  C        -0.0029163549        0.0084112731       -0.0110703325
  C         0.0014782452       -0.0022684785        0.0004891944
  H         0.0015689446       -0.0089566083        0.0035015468
  H         0.0070706300        0.0004737066        0.0030465550
  H         0.0015528572        0.0025120664        0.0050399488
  H        -0.0016067349       -0.0027915000        0.0049219763
  H        -0.0025214179       -0.0019080756       -0.0020660341
  H        -0.0046333580        0.0045677894       -0.0038769192
       8
 i =       37, time =       18.500, E =       -14.9521884448
  C        -0.0022794319        0.0095977458       -0.0114113147
  C         0.0011886495       -0.0021466191        0.0007590942
  H         0.0017639299       -0.0095736346        0.0035915166
  H         0.0070943714        0.0004206960        0.0035199056
  H         0.0013549502        0.0025142302        0.0048824469
  H        -0.0015517341       -0.0036103207        0.0049689871
  H        -0.0027373769       -0.0015595372       -0.0016089802
  H        -0.0048376962        0.0043992885       -0.0047158492
       8
 i =       38, time =       19.000, E =       -14.9522490442
  C        -0.0015477257        0.0099882473       -0.0108934741
  C         0.0006855283       -0.0022503904        0.0007493522
  H         0.0019314056       -0.0092621048        0.0034444462
  H         0.0068425330        0.0003824795        0.0035734907
  H         0.0012874414        0.0023544831        0.0045171982
  H        -0.0014760508       -0.0040988267        0.0048358574
  H        -0.0029088610       -0.0011774975       -0.0011260748
  H        -0.0048160498        0.0041064039       -0.0051146846
       8
 i =       39, time =       19.500, E =       -14.9523694166
  C        -0.0007233741        0.0096000395       -0.0095400396
  C        -0.0000515670       -0.0025831847        0.0004723486
  H         0.0020730811       -0.0080549614        0.0030676478
  H         0.0063232076        0.0003603408        0.0032087986
  H         0.0013400691        0.0020412778        0.0039584023
  H        -0.0013834019       -0.0042289173        0.0045198590
  H        -0.0030119410       -0.0007869021       -0.0006471289
  H        -0.0045655439        0.0036957279       -0.0050530880
       8
 i =       40, time =       20.000, E =       -14.9525265739
  C         0.0001930619        0.0085395373       -0.0074406248
  C        -0.0010273499       -0.0031292189       -0.0000405504
  H         0.0021895818       -0.0060859991        0.0024915210
  H         0.0055597870        0.0003540182        0.0024580511
  H         0.0014880408        0.0015963336        0.0032328630
  H        -0.0012784379       -0.0039987282        0.0040281365
  H        -0.0030252512       -0.0004113556       -0.0001997887
  H        -0.0040967374        0.0031789345       -0.0045418595
       8
 i =       41, time =       20.500, E =       -14.9526868106
  C         0.0011995351        0.0069812635       -0.0047450607
  C        -0.0022294418       -0.0038540163       -0.0007400623
  H         0.0022803377       -0.0035660476        0.0017648044
  H         0.0045904692        0.0003615372        0.0013848776
  H         0.0016950410        0.0010526371        0.0023781078
  H        -0.0011662166       -0.0034324222        0.0033775931
  H        -0.0029316712       -0.0000717746        0.0001920105
  H        -0.0034333835        0.0025722300       -0.0036232833
       8
 i =       42, time =       21.000, E =       -14.9528155652
  C         0.0022892914        0.0051366708       -0.0016516188
  C        -0.0036276672       -0.0047071484       -0.0015605902
  H         0.0023440630       -0.0007481245        0.0009472854
  H         0.0034671583        0.0003790149        0.0000821101
  H         0.0019176657        0.0004507581        0.0014397178
  H        -0.0010515144       -0.0025788647        0.0025939076
  H        -0.0027207480        0.0002152753        0.0005099804
  H        -0.0026117885        0.0018954902       -0.0023701878
       8
 i =       43, time =       21.500, E =       -14.9528872361
  C         0.0034461766        0.0032242218        0.0016051257
  C        -0.0051746349       -0.0056212619       -0.0024207273
  H         0.0023792909        0.0021046144        0.0001022487
  H         0.0022539696        0.0004007676       -0.0013298122
  H         0.0021095720       -0.0001640187        0.0004681071
  H        -0.0009382532       -0.0015109304        0.0017112663
  H        -0.0023880833        0.0004375045        0.0007413134
  H        -0.0016799373        0.0011715318       -0.0008852889
       8
 i =       44, time =       22.000, E =       -14.9528919176
  C         0.0046439646        0.0014438865        0.0047726135
  C        -0.0068072006       -0.0065164901       -0.0032273147
  H         0.0023850675        0.0047495505       -0.0007099797
  H         0.0010228546        0.0004193863       -0.0027105447
  H         0.0022264061       -0.0007462990       -0.0004850061
  H        -0.0008289233       -0.0003215757        0.0007704230
  H        -0.0019372986        0.0005882403        0.0008800688
  H        -0.0006952963        0.0004247871        0.0007037314
       8
 i =       45, time =       22.500, E =       -14.9528371801
  C         0.0058471556       -0.0000381639        0.0075990529
  C        -0.0084506827       -0.0073047206       -0.0038810159
  H         0.0023613310        0.0069826894       -0.0014368540
  H        -0.0001514614        0.0004263144       -0.0039104860
  H         0.0022297620       -0.0012540137       -0.0013704403
  H        -0.0007240441        0.0008820096       -0.0001833113
  H        -0.0013797457        0.0006665032        0.0009273642
  H         0.0002785675       -0.0003202012        0.0022513874
       8
 i =       46, time =       23.000, E =       -14.9527446352
  C         0.0070162455       -0.0010968298        0.0098558562
  C        -0.0100235346       -0.0078965953       -0.0042855031
  H         0.0023091354        0.0086473313       -0.0020355956
  H        -0.0011999635        0.0004126022       -0.0047891830
  H         0.0020895249       -0.0016512625       -0.0021432698
  H        -0.0006220066        0.0019870262       -0.0011036886
  H        -0.0007348378        0.0006772737        0.0008915224
  H         0.0011772995       -0.0010406248        0.0036073337
       8
 i =       47, time =       23.500, E =       -14.9526424496
  C         0.0081122979       -0.0016464882        0.0113580287
  C        -0.0114453928       -0.0082098577       -0.0043595122
  H         0.0022303805        0.0096353067       -0.0024743371
  H        -0.0020654418        0.0003702113       -0.0052299848
  H         0.0017872472       -0.0019110610       -0.0027676448
  H        -0.0005192881        0.0028849536       -0.0019464436
  H        -0.0000289441        0.0006309496        0.0007874334
  H         0.0019417585       -0.0017167466        0.0046313187
       8
 i =       48, time =       24.000, E =       -14.9525561936
  C         0.0091034597       -0.0016397019        0.0119844997
  C        -0.0126435548       -0.0081795684       -0.0040493878
  H         0.0021277242        0.0098853254       -0.0027321936
  H        -0.0027102264        0.0002931922       -0.0051588816
  H         0.0013168147       -0.0020169516       -0.0032175286
  H        -0.0004109183        0.0034833433       -0.0026733797
  H         0.0007051793        0.0005429433        0.0006359573
  H         0.0025245376       -0.0023332353        0.0052109610
       8
 i =       49, time =       24.500, E =       -14.9525008880
  C         0.0099688461       -0.0010644992        0.0116920126
  C        -0.0135595141       -0.0077676575       -0.0033400949
  H         0.0020043137        0.0093810046       -0.0027991453
  H        -0.0031200583        0.0001788490       -0.0045564899
  H         0.0006851572       -0.0019642134       -0.0034793668
  H        -0.0002913115        0.0037169122       -0.0032558094
  H         0.0014301505        0.0004326402        0.0004628759
  H         0.0028955144       -0.0028796682        0.0052769264
       8
 i =       50, time =       25.000, E =       -14.9524768580
  C         0.0106993307        0.0000561981        0.0105206598
  C        -0.0141533544       -0.0069701398       -0.0022612520
  H         0.0018635744        0.0081500214       -0.0026763090
  H        -0.0033046544        0.0000284406       -0.0034622701
  H        -0.0000877269       -0.0017604776       -0.0035526704
  H        -0.0001552976        0.0035558748       -0.0036767964