 DBCSR| CPU Multiplication driver                                           XSMM
 DBCSR| Multrec recursion limit                                              512
 DBCSR| Multiplication stack size                                           1000
 DBCSR| Maximum elements for images                                    UNLIMITED
 DBCSR| Multiplicative factor virtual images                                   1
 DBCSR| Use multiplication densification                                       T
 DBCSR| Multiplication size stacks                                             3
 DBCSR| Use memory pool for CPU allocation                                     F
 DBCSR| Number of 3D layers                                               SINGLE
 DBCSR| Use MPI memory allocation                                              F
 DBCSR| Use RMA algorithm                                                      F
 DBCSR| Use Communication thread                                               T
 DBCSR| Communication thread load                                             87
 DBCSR| MPI: My node id                                                        0
 DBCSR| MPI: Number of nodes                                                  24
 DBCSR| OMP: Current number of threads                                         1
 DBCSR| OMP: Max number of threads                                             1
 DBCSR| Split modifier for TAS multiplication algorithm                  1.0E+00


  **** **** ******  **  PROGRAM STARTED AT               2021-10-27 13:22:07.156
 ***** ** ***  *** **   PROGRAM STARTED ON                                node10
 **    ****   ******    PROGRAM STARTED BY                               lujunbo
 ***** **    ** ** **   PROGRAM PROCESS ID                                251875
  **** **  *******  **  PROGRAM STARTED IN /home/lujunbo/WORK/deepmd/c2h6/mtd/tr
                                           ain_4_sys/cp2k_md/sys_4/data/task_135
                                           7

 CP2K| version string:                                          CP2K version 8.2
 CP2K| source code revision number:                                  git:310b7ab
 CP2K| cp2kflags: omp libint fftw3 libxc elpa parallel mpi3 scalapack xsmm plume
 CP2K|            d2 spglib mkl libvori libbqb
 CP2K| is freely available from                            https://www.cp2k.org/
 CP2K| Program compiled at                          Tue Jun  1 15:18:23 CST 2021
 CP2K| Program compiled on                                                   mgr
 CP2K| Program compiled for                                                local
 CP2K| Data directory path                       /home/lujunbo/bin/cp2k-8.2/data
 CP2K| Input file name                                                 input.inp

 GLOBAL| Force Environment number                                              1
 GLOBAL| Basis set file name            /home/lujunbo/bin/cp2k-8.2/data/BASIS_MO
 GLOBAL| Potential file name            /home/lujunbo/bin/cp2k-8.2/data/POTENTIA
 GLOBAL| MM Potential file name                                     MM_POTENTIAL
 GLOBAL| Coordinate file name                                      __STD_INPUT__
 GLOBAL| Method name                                                        CP2K
 GLOBAL| Project name                                                       cp2k
 GLOBAL| Run type                                                   ENERGY_FORCE
 GLOBAL| FFT library                                                       FFTW3
 GLOBAL| Diagonalization library                                            ELPA
 GLOBAL| Minimum number of eigenvectors for ELPA usage                        16
 GLOBAL| Orthonormality check for eigenvectors                          DISABLED
 GLOBAL| Matrix multiplication library                                    SCALAP
 GLOBAL| All-to-all communication in single precision                          F
 GLOBAL| FFTs using library dependent lengths                                  F
 GLOBAL| Grid backend                                                       AUTO
 GLOBAL| Global print level                                                  LOW
 GLOBAL| MPI I/O enabled                                                       T
 GLOBAL| Total number of message passing processes                            24
 GLOBAL| Number of threads for this process                                    1
 GLOBAL| This output is from process                                           0
 GLOBAL| CPU model name             Intel(R) Xeon(R) Platinum 9242 CPU @ 2.30GHz
 GLOBAL| CPUID                                                              1003

 MEMORY| system memory details [Kb]
 MEMORY|                        rank 0           min           max       average
 MEMORY| MemTotal            394609400     394609400     394609400     394609400
 MEMORY| MemFree             296074696     296074696     296074696     296074696
 MEMORY| Buffers                178368        178368        178368        178368
 MEMORY| Cached               62510036      62510036      62510036      62510036
 MEMORY| Slab                  1283424       1283424       1283424       1283424
 MEMORY| SReclaimable           589024        589024        589024        589024
 MEMORY| MemLikelyFree       359352124     359352124     359352124     359352124


 GENERATE|  Preliminary Number of Bonds generated:                             0
 GENERATE|  Achieved consistency in connectivity generation.

 *******************************************************************************
 *******************************************************************************
 **                                                                           **
 **     #####                         ##              ##                      **
 **    ##   ##            ##          ##              ##                      **
 **   ##     ##                       ##            ######                    **
 **   ##     ##  ##   ##  ##   #####  ##  ##   ####   ##    #####    #####    **
 **   ##     ##  ##   ##  ##  ##      ## ##   ##      ##   ##   ##  ##   ##   **
 **   ##  ## ##  ##   ##  ##  ##      ####     ###    ##   ######   ######    **
 **    ##  ###   ##   ##  ##  ##      ## ##      ##   ##   ##       ##        **
 **     #######   #####   ##   #####  ##  ##  ####    ##    #####   ##        **
 **           ##                                                    ##        **
 **                                                                           **
 **                                                ... make the atoms dance   **
 **                                                                           **
 **            Copyright (C) by CP2K developers group (2000-2021)             **
 **                      J. Chem. Phys. 152, 194103 (2020)                    **
 **                                                                           **
 *******************************************************************************


 TOTAL NUMBERS AND MAXIMUM NUMBERS

  Total number of            - Atomic kinds:                                   2
                             - Atoms:                                          8
                             - Shell sets:                                     8
                             - Shells:                                        28
                             - Primitive Cartesian functions:                 40
                             - Cartesian basis functions:                     58
                             - Spherical basis functions:                     56

  Maximum angular momentum of- Orbital basis functions:                        2
                             - Local part of the GTH pseudopotential:          2
                             - Non-local part of the GTH pseudopotential:      0


 SCF PARAMETERS         Density guess:                                   RESTART
                        --------------------------------------------------------
                        max_scf:                                             100
                        max_scf_history:                                       0
                        max_diis:                                              4
                        --------------------------------------------------------
                        eps_scf:                                        1.00E-06
                        eps_scf_history:                                0.00E+00
                        eps_diis:                                       1.00E-01
                        eps_eigval:                                     1.00E-05
                        --------------------------------------------------------
                        level_shift [a.u.]:                                 0.00
                        --------------------------------------------------------
                        Outer loop SCF in use 
                        No variables optimised in outer loop
                        eps_scf                                         1.00E-06
                        max_scf                                                6
                        No outer loop optimization
                        step_size                                       5.00E-01

 Number of electrons:                                                         14
 Number of occupied orbitals:                                                  7
 Number of molecular orbitals:                                                 7

 Number of orbital functions:                                                 56
 Number of independent orbital functions:                                     56

 Extrapolation method: initial_guess

 *** WARNING in qs_initial_guess.F:309 :: User requested to restart the    ***
 *** wavefunction from the file named: cp2k-RESTART.wfn. This file does    ***
 *** not exist. Please check the existence of the file or change properly  ***
 *** the value of the keyword WFN_RESTART_FILE_NAME. Calculation continues ***
 *** using ATOMIC GUESS.                                                   ***



 SCF WAVEFUNCTION OPTIMIZATION

  ----------------------------------- OT ---------------------------------------
  Minimizer      : CG                  : conjugate gradient
  Preconditioner : FULL_ALL            : diagonalization, state selective
  Precond_solver : DEFAULT
  Line search    : 2PNT                : 2 energies, one gradient
  stepsize       :    0.15000000                  energy_gap     :    0.08000000
  eps_taylor     :   0.10000E-15                  max_taylor     :             4
  ----------------------------------- OT ---------------------------------------

  Step     Update method      Time    Convergence         Total energy    Change
  ------------------------------------------------------------------------------
     1 OT CG       0.15E+00    0.2     0.22994388       -13.9775333898 -1.40E+01
     2 OT LS       0.71E-01    0.1                      -13.7881965776
     3 OT CG       0.71E-01    0.3     0.11053241       -14.7005745319 -7.23E-01
     4 OT LS       0.10E+00    0.1                      -14.8629758582
     5 OT CG       0.10E+00    0.2     0.07836067       -14.8792374063 -1.79E-01
     6 OT LS       0.48E-01    0.1                      -14.8651733937
     7 OT CG       0.48E-01    0.2     0.02564673       -14.9372552219 -5.80E-02
     8 OT LS       0.93E-01    0.1                      -14.9463820110
     9 OT CG       0.93E-01    0.3     0.01046688       -14.9491142088 -1.19E-02
    10 OT LS       0.15E+00    0.1                      -14.9518449221
    11 OT CG       0.15E+00    0.2     0.00448106       -14.9522882427 -3.17E-03
    12 OT LS       0.79E-01    0.1                      -14.9523567236
    13 OT CG       0.79E-01    0.2     0.00208954       -14.9525977013 -3.09E-04
    14 OT LS       0.68E-01    0.1                      -14.9526545226
    15 OT CG       0.68E-01    0.3     0.00097248       -14.9526559786 -5.83E-05
    16 OT LS       0.78E-01    0.1                      -14.9526702168
    17 OT CG       0.78E-01    0.2     0.00037541       -14.9526704547 -1.45E-05
    18 OT LS       0.14E+00    0.1                      -14.9526735302
    19 OT CG       0.14E+00    0.2     0.00015969       -14.9526742099 -3.76E-06
    20 OT LS       0.12E+00    0.1                      -14.9526747870
    21 OT CG       0.12E+00    0.2     0.00008505       -14.9526748004 -5.90E-07
    22 OT LS       0.53E-01    0.1                      -14.9526747646
    23 OT CG       0.53E-01    0.2     0.00003285       -14.9526748760 -7.56E-08
    24 OT LS       0.13E+00    0.1                      -14.9526748939
    25 OT CG       0.13E+00    0.2     0.00001223       -14.9526749034 -2.74E-08
    26 OT LS       0.14E+00    0.1                      -14.9526749074
    27 OT CG       0.14E+00    0.2     0.00000510       -14.9526749075 -4.02E-09
    28 OT LS       0.68E-01    0.1                      -14.9526749074
    29 OT CG       0.68E-01    0.2     0.00000301       -14.9526749078 -3.46E-10
    30 OT LS       0.92E-01    0.1                      -14.9526749080
    31 OT CG       0.92E-01    0.2     0.00000126       -14.9526749080 -1.63E-10
    32 OT LS       0.91E-01    0.1                      -14.9526749080
    33 OT CG       0.91E-01    0.3     0.00000055       -14.9526749080 -2.81E-11

  *** SCF run converged in    33 steps ***


  Electronic density on regular grids:        -14.0000000000        0.0000000000
  Core density on regular grids:               13.9999999989       -0.0000000011
  Total charge density on r-space grids:       -0.0000000010
  Total charge density g-space grids:          -0.0000000010

  Overlap energy of the core charge distribution:               0.00000148021464
  Self energy of the core charge distribution:                -35.13285960674677
  Core Hamiltonian energy:                                     11.39438288666929
  Hartree energy:                                              14.44039731017593
  Exchange-correlation energy:                                 -5.65459697831056

  Total energy:                                               -14.95267490799747

  outer SCF iter =    1 RMS gradient =   0.55E-06 energy =        -14.9526749080
  outer SCF loop converged in   1 iterations or   33 steps


 ENERGY| Total FORCE_EVAL ( QS ) energy [a.u.]:              -14.952674908004067

 -------------------------------------------------------------------------------
 -                                                                             -
 -                                DBCSR STATISTICS                             -
 -                                                                             -
 -------------------------------------------------------------------------------
 COUNTER                                    TOTAL       BLAS       SMM       ACC
 flops     7 x     7 x     7               122794       0.0%    100.0%      0.0%
 flops     5 x    13 x     7               191100       0.0%    100.0%      0.0%
 flops    13 x     5 x     7               191100       0.0%    100.0%      0.0%
 flops     7 x     7 x    13               216580       0.0%    100.0%      0.0%
 flops    13 x    13 x     7               248430       0.0%    100.0%      0.0%
 flops     7 x     7 x     5               249900       0.0%    100.0%      0.0%
 flops     5 x     5 x     7               257250       0.0%    100.0%      0.0%
 flops    26 x     7 x     7               300664       0.0%    100.0%      0.0%
 flops    26 x     7 x    13               340704       0.0%    100.0%      0.0%
 flops    10 x     7 x     7               346920       0.0%    100.0%      0.0%
 flops    26 x     7 x     5               393120       0.0%    100.0%      0.0%
 flops    10 x     7 x    13               393120       0.0%    100.0%      0.0%
 flops    10 x     7 x     5               453600       0.0%    100.0%      0.0%
 flops    13 x     7 x    13               558376       0.0%    100.0%      0.0%
 flops    13 x     7 x     5               644280       0.0%    100.0%      0.0%
 flops     5 x     7 x    13               644280       0.0%    100.0%      0.0%
 flops     5 x     7 x     5               743400       0.0%    100.0%      0.0%
 flops inhomo. stacks                           0       0.0%      0.0%      0.0%
 flops total                         6.295618E+06       0.0%    100.0%      0.0%
 flops max/rank                      3.074848E+06       0.0%    100.0%      0.0%
 matmuls inhomo. stacks                         0       0.0%      0.0%      0.0%
 matmuls total                               7519       0.0%    100.0%      0.0%
 number of processed stacks                  5211       0.0%    100.0%      0.0%
 average stack size                                     0.0       1.4       0.0
 marketing flops                     6.949864E+06
 -------------------------------------------------------------------------------
 # multiplications                            513
 max memory usage/rank             177.795072E+06
 # max total images/rank                        3
 # max 3D layers                                1
 # MPI messages exchanged                  233928
 MPI messages size (bytes):
  total size                        18.371472E+06
  min size                           0.000000E+00
  max size                           2.704000E+03
  average size                      78.534729E+00
 MPI breakdown and total messages size (bytes):
             size <=      128              205532                        0
       128 < size <=     8192               28396                 18371472
      8192 < size <=    32768                   0                        0
     32768 < size <=   131072                   0                        0
    131072 < size <=  4194304                   0                        0
   4194304 < size <= 16777216                   0                        0
  16777216 < size                               0                        0
 -------------------------------------------------------------------------------

 *** WARNING in dbcsr_mm.F:294 :: Using a non-square number of MPI ranks ***
 *** might lead to poor performance. Used ranks: 24 Suggested: 25 49     ***

 -------------------------------------------------------------------------------
 -                                                                             -
 -                      DBCSR MESSAGE PASSING PERFORMANCE                      -
 -                                                                             -
 -------------------------------------------------------------------------------
 ROUTINE             CALLS      AVE VOLUME [Bytes]
 MP_Bcast               18                     12.
 MP_Allreduce         2636                      8.
 MP_Alltoall          2081                   1375.
 MP_ISend            21542                    162.
 MP_IRecv            21542                    109.
 -------------------------------------------------------------------------------

 -------------------------------------------------------------------------------
 -                                                                             -
 -                                GRID STATISTICS                              -
 -                                                                             -
 -------------------------------------------------------------------------------
 LP    KERNEL             BACKEND                              COUNT     PERCENT
 2     collocate ortho    REF                                  22984      38.26%
 3     collocate ortho    REF                                  12852      21.39%
 2     integrate ortho    REF                                  11492      19.13%
 3     integrate ortho    REF                                   6426      10.70%
 4     collocate ortho    REF                                   3196       5.32%
 4     integrate ortho    REF                                   1598       2.66%
 5     integrate ortho    REF                                    676       1.13%
 6     integrate ortho    REF                                    378       0.63%
 0     collocate general  REF                                    192       0.32%
 3     integrate general  REF                                    192       0.32%
 7     integrate ortho    REF                                     94       0.16%
 -------------------------------------------------------------------------------

 MEMORY| Estimated peak process memory [MiB]                                 170

 -------------------------------------------------------------------------------
 -                                                                             -
 -                         MESSAGE PASSING PERFORMANCE                         -
 -                                                                             -
 -------------------------------------------------------------------------------

 ROUTINE             CALLS      AVE VOLUME [Bytes]
 MP_Group                4
 MP_Bcast              625                 588382.
 MP_Allreduce         1885                    180.
 MP_Sync                76
 MP_Alltoall           500                2985164.
 MP_ISendRecv         3588                  53808.
 MP_Wait              5424
 MP_comm_split          36
 MP_ISend             1620                 171662.
 MP_IRecv             1620                 171405.
 MP_Recv                 6                    896.
 -------------------------------------------------------------------------------


 -------------------------------------------------------------------------------
 -                                                                             -
 -                           R E F E R E N C E S                               -
 -                                                                             -
 -------------------------------------------------------------------------------
 
 CP2K version 8.2, the CP2K developers group (2021).
 CP2K is freely available from https://www.cp2k.org/ .

 Kuehne,Thomas D.; Iannuzzi,Marcella; Del Ben,Mauro;
 Rybkin,Vladimir V.; Seewald,Patrick; Stein,Frederick; Laino,Teodoro;
 Khaliullin,Rustam Z.; Schuett,Ole; Schiffmann,Florian; Golze,Dorothea;
 Wilhelm,Jan; Chulkov,Sergey; Bani-Hashemian,Mohammad Hossein;
 Weber,Valery; Borstnik,Urban; Taillefumier,Mathieu;
 Jakobovits,Alice Shoshana; Lazzaro,Alfio; Pabst,Hans; Mueller,Tiziano;
 Schade,Robert; Guidon,Manuel; Andermatt,Samuel; Holmberg,Nico;
 Schenter,Gregory K.; Hehn,Anna; Bussy,Augustin; Belleflamme,Fabian;
 Tabacchi,Gloria; Gloess,Andreas; Lass,Michael; Bethune,Iain;
 Mundy,Christopher J.; Plessl,Christian; Watkins,Matt;
 VandeVondele,Joost; Krack,Matthias; Hutter,Juerg. 
 The Journal of Chemical Physics, 152 (19), (2020). 
 CP2K: An electronic structure and molecular dynamics software package -
 Quickstep: Efficient and accurate electronic structure calculations.
 https://doi.org/10.1063/5.0007045

 Schuett, Ole; Messmer, Peter; Hutter, Juerg; VandeVondele, Joost. 
 Electronic Structure Calculations on Graphics Processing Units, John
 Wiley & Sons, Ltd, 173-190 (2016). 
 GPU-Accelerated Sparse Matrix-Matrix Multiplication for
 Linear Scaling Density Functional Theory.
 https://doi.org/10.1002/9781118670712.ch8

 Heinecke, A; Henry, G; Hutchinson, M; Pabst, H. 
 Proceedings of Intl. Supercomputing Conference, 981-991 (2016). 
 LIBXSMM: Accelerating Small Matrix Multiplications
 by Runtime Code Generation.
 https://doi.org/10.1109/SC.2016.83

 Borstnik, U; VandeVondele, J; Weber, V; Hutter, J. 
 PARALLEL COMPUTING, 40 (5-6), 47-58 (2014). 
 Sparse matrix multiplication: The distributed block-compressed sparse
 row library.
 https://doi.org/10.1016/j.parco.2014.03.012

 Hutter, J; Iannuzzi, M; Schiffmann, F; VandeVondele, J. 
 WIREs Comput Mol Sci., 4 (1), 15-25 (2014). 
 CP2K: atomistic simulations of condensed matter systems.
 https://doi.org/10.1002/wcms.1159

 Marek, A; Blum, V; Johanni, R; Havu, V; Lang, B; Auckenthaler, T;
 Heinecke, A; Bungartz, H; Lederer, H. 
 Journal of Physics: Condensed Matter, 26 (21), (2014). 
 The ELPA library: scalable parallel eigenvalue solutions for
 electronic structure
 theory and computational science.
 https://doi.org/10.1088/0953-8984/26/21/213201

 VandeVondele, J; Hutter, J. 
 JOURNAL OF CHEMICAL PHYSICS, 127 (11), 114105 (2007). 
 Gaussian basis sets for accurate calculations on molecular systems in
 gas and condensed phases.
 https://doi.org/10.1063/1.2770708

 Krack, M. 
 THEORETICAL CHEMISTRY ACCOUNTS, 114 (1-3), 145-152 (2005). 
 Pseudopotentials for H to Kr optimized for gradient-corrected
 exchange-correlation functionals.
 https://doi.org/10.1007/s00214-005-0655-y

 VandeVondele, J; Krack, M; Mohamed, F; Parrinello, M; Chassaing, T;
 Hutter, J. COMPUTER PHYSICS COMMUNICATIONS, 167 (2), 103-128 (2005). 
 QUICKSTEP: Fast and accurate density functional calculations using a
 mixed Gaussian and plane waves approach.
 https://doi.org/10.1016/j.cpc.2004.12.014

 Frigo, M; Johnson, SG. 
 PROCEEDINGS OF THE IEEE, 93 (2), 216-231 (2005). 
 The design and implementation of FFTW3.
 https://doi.org/10.1109/JPROC.2004.840301

 VandeVondele, J; Hutter, J. 
 JOURNAL OF CHEMICAL PHYSICS, 118 (10), 4365-4369 (2003). 
 An efficient orbital transformation method for electronic structure
 calculations.
 https://doi.org/10.1063/1.1543154

 Hartwigsen, C; Goedecker, S; Hutter, J. 
 PHYSICAL REVIEW B, 58 (7), 3641-3662 (1998). 
 Relativistic separable dual-space Gaussian pseudopotentials from H to Rn.
 https://doi.org/10.1103/PhysRevB.58.3641

 Lippert, G; Hutter, J; Parrinello, M. 
 MOLECULAR PHYSICS, 92 (3), 477-487 (1997). 
 A hybrid Gaussian and plane wave density functional scheme.
 https://doi.org/10.1080/002689797170220

 Perdew, JP; Burke, K; Ernzerhof, M. 
 PHYSICAL REVIEW LETTERS, 77 (18), 3865-3868 (1996). 
 Generalized gradient approximation made simple.
 https://doi.org/10.1103/PhysRevLett.77.3865

 Goedecker, S; Teter, M; Hutter, J. 
 PHYSICAL REVIEW B, 54 (3), 1703-1710 (1996). 
 Separable dual-space Gaussian pseudopotentials.
 https://doi.org/10.1103/PhysRevB.54.1703


 -------------------------------------------------------------------------------
 -                                                                             -
 -                                T I M I N G                                  -
 -                                                                             -
 -------------------------------------------------------------------------------
 SUBROUTINE                       CALLS  ASD         SELF TIME        TOTAL TIME
                                MAXIMUM       AVERAGE  MAXIMUM  AVERAGE  MAXIMUM
 CP2K                                 1  1.0    0.005    0.011    6.376    6.378
 qs_forces                            1  2.0    0.000    0.000    6.271    6.271
 qs_energies                          1  3.0    0.000    0.000    6.093    6.093
 scf_env_do_scf                       1  4.0    0.000    0.000    5.986    5.987
 scf_env_do_scf_inner_loop           33  5.0    0.001    0.003    5.790    5.791
 rebuild_ks_matrix                   34  6.9    0.000    0.000    4.018    4.019
 qs_ks_build_kohn_sham_matrix        34  7.9    0.004    0.004    4.018    4.019
 qs_ks_update_qs_env                 34  6.0    0.000    0.000    3.848    3.849
 pw_transfer                        503 10.4    0.022    0.024    2.927    3.105
 qs_vxc_create                       34  8.9    0.000    0.000    3.066    3.070
 fft_wrap_pw1pw2                    435 11.4    0.003    0.004    2.886    3.066
 fft_wrap_pw1pw2_200                279 12.7    0.163    0.174    2.760    2.943
 fft3d_ps                           435 13.4    1.281    1.449    2.362    2.528
 xc_rho_set_and_dset_create          34 10.9    0.014    0.015    2.017    2.283
 xc_vxc_pw_create                    18  9.8    0.033    0.038    1.994    1.999
 qs_rho_update_rho                   34  6.0    0.000    0.000    1.599    1.600
 calculate_rho_elec                  34  7.0    0.019    0.021    1.599    1.599
 density_rs2pw                       34  8.0    0.001    0.002    1.350    1.407
 xc_functional_eval                  34 11.9    0.000    0.000    0.891    1.146
 pbe_lda_eval                        34 12.9    0.890    1.146    0.890    1.146
 mp_alltoall_z22v                   435 15.4    0.873    1.073    0.873    1.073
 xc_exc_calc                         16 10.0    0.007    0.008    1.071    1.071
 rs_pw_transfer                     210 10.0    0.002    0.002    0.889    0.923
 yz_to_x                            209 13.7    0.062    0.070    0.513    0.705
 x_to_yz                            226 15.1    0.140    0.163    0.562    0.650
 sum_up_and_integrate                18  8.8    0.004    0.004    0.635    0.636
 integrate_v_rspace                  18  9.8    0.000    0.000    0.632    0.632
 qs_scf_new_mos                      33  6.0    0.000    0.000    0.543    0.544
 qs_scf_loop_do_ot                   33  7.0    0.000    0.000    0.543    0.544
 ot_scf_mini                         33  8.0    0.000    0.000    0.511    0.512
 rs_pw_transfer_RS2PW_200            35  9.9    0.173    0.186    0.454    0.491
 potential_pw2rs                     18 10.8    0.001    0.001    0.456    0.456
 dbcsr_multiply_generic             513 10.9    0.014    0.015    0.446    0.451
 grid_collocate_task_list            34  8.0    0.190    0.426    0.190    0.426
 mp_sum_d                          1013  7.5    0.218    0.371    0.218    0.371
 mp_waitany                        1620 11.9    0.303    0.342    0.303    0.342
 mp_waitall_1                     32532 14.7    0.199    0.246    0.199    0.246
 ot_mini                             33  9.0    0.000    0.000    0.230    0.231
 qs_ot_get_p                         34  8.9    0.000    0.000    0.200    0.202
 init_scf_loop                        1  5.0    0.000    0.000    0.195    0.195
 qs_ot_get_derivative                17 10.0    0.000    0.000    0.193    0.194
 pw_scatter_p                       226 14.1    0.181    0.185    0.181    0.185
 multiply_cannon                    513 11.9    0.027    0.029    0.171    0.181
 mp_alltoall_d11v                   548 13.0    0.159    0.179    0.159    0.179
 pw_gather_p                        209 12.7    0.167    0.178    0.167    0.178
 grid_integrate_task_list            18 10.8    0.034    0.172    0.034    0.172
 qs_ks_update_qs_env_forces           1  3.0    0.000    0.000    0.172    0.172
 rs_pw_transfer_PW2RS_200            19 12.6    0.094    0.100    0.165    0.171
 make_m2s                          1026 11.9    0.011    0.012    0.164    0.170
 rs_gather_matrices                  18 10.8    0.000    0.000    0.141    0.161
 qs_ot_p2m_diag                      33 10.0    0.001    0.001    0.140    0.141
 qs_ot_get_derivative_diag           16 11.0    0.000    0.000    0.141    0.141
 rs_pw_transfer_RS2PW_70             34 10.0    0.037    0.039    0.124    0.139
 -------------------------------------------------------------------------------

 The number of warnings for this run is : 2
 
 -------------------------------------------------------------------------------
  **** **** ******  **  PROGRAM ENDED AT                 2021-10-27 13:22:14.010
 ***** ** ***  *** **   PROGRAM RAN ON                                    node10
 **    ****   ******    PROGRAM RAN BY                                   lujunbo
 ***** **    ** ** **   PROGRAM PROCESS ID                                251875
  **** **  *******  **  PROGRAM STOPPED IN /home/lujunbo/WORK/deepmd/c2h6/mtd/tr
                                           ain_4_sys/cp2k_md/sys_4/data/task_135
                                           7
