 DBCSR| CPU Multiplication driver                                           XSMM
 DBCSR| Multrec recursion limit                                              512
 DBCSR| Multiplication stack size                                           1000
 DBCSR| Maximum elements for images                                    UNLIMITED
 DBCSR| Multiplicative factor virtual images                                   1
 DBCSR| Use multiplication densification                                       T
 DBCSR| Multiplication size stacks                                             3
 DBCSR| Use memory pool for CPU allocation                                     F
 DBCSR| Number of 3D layers                                               SINGLE
 DBCSR| Use MPI memory allocation                                              F
 DBCSR| Use RMA algorithm                                                      F
 DBCSR| Use Communication thread                                               T
 DBCSR| Communication thread load                                             87
 DBCSR| MPI: My node id                                                        0
 DBCSR| MPI: Number of nodes                                                  24
 DBCSR| OMP: Current number of threads                                         1
 DBCSR| OMP: Max number of threads                                             1
 DBCSR| Split modifier for TAS multiplication algorithm                  1.0E+00


  **** **** ******  **  PROGRAM STARTED AT               2021-10-27 16:23:19.229
 ***** ** ***  *** **   PROGRAM STARTED ON                                 node2
 **    ****   ******    PROGRAM STARTED BY                               lujunbo
 ***** **    ** ** **   PROGRAM PROCESS ID                                715764
  **** **  *******  **  PROGRAM STARTED IN /home/lujunbo/WORK/deepmd/c2h6/mtd/tr
                                           ain_4_sys/cp2k_md/sys_4/data/task_282
                                           8

 CP2K| version string:                                          CP2K version 8.2
 CP2K| source code revision number:                                  git:310b7ab
 CP2K| cp2kflags: omp libint fftw3 libxc elpa parallel mpi3 scalapack xsmm plume
 CP2K|            d2 spglib mkl libvori libbqb
 CP2K| is freely available from                            https://www.cp2k.org/
 CP2K| Program compiled at                          Tue Jun  1 15:18:23 CST 2021
 CP2K| Program compiled on                                                   mgr
 CP2K| Program compiled for                                                local
 CP2K| Data directory path                       /home/lujunbo/bin/cp2k-8.2/data
 CP2K| Input file name                                                 input.inp

 GLOBAL| Force Environment number                                              1
 GLOBAL| Basis set file name            /home/lujunbo/bin/cp2k-8.2/data/BASIS_MO
 GLOBAL| Potential file name            /home/lujunbo/bin/cp2k-8.2/data/POTENTIA
 GLOBAL| MM Potential file name                                     MM_POTENTIAL
 GLOBAL| Coordinate file name                                      __STD_INPUT__
 GLOBAL| Method name                                                        CP2K
 GLOBAL| Project name                                                       cp2k
 GLOBAL| Run type                                                   ENERGY_FORCE
 GLOBAL| FFT library                                                       FFTW3
 GLOBAL| Diagonalization library                                            ELPA
 GLOBAL| Minimum number of eigenvectors for ELPA usage                        16
 GLOBAL| Orthonormality check for eigenvectors                          DISABLED
 GLOBAL| Matrix multiplication library                                    SCALAP
 GLOBAL| All-to-all communication in single precision                          F
 GLOBAL| FFTs using library dependent lengths                                  F
 GLOBAL| Grid backend                                                       AUTO
 GLOBAL| Global print level                                                  LOW
 GLOBAL| MPI I/O enabled                                                       T
 GLOBAL| Total number of message passing processes                            24
 GLOBAL| Number of threads for this process                                    1
 GLOBAL| This output is from process                                           0
 GLOBAL| CPU model name             Intel(R) Xeon(R) Platinum 9242 CPU @ 2.30GHz
 GLOBAL| CPUID                                                              1003

 MEMORY| system memory details [Kb]
 MEMORY|                        rank 0           min           max       average
 MEMORY| MemTotal            394609400     394609400     394609400     394609400
 MEMORY| MemFree             120452100     120450240     120452100     120452022
 MEMORY| Buffers                164324        164324        164324        164324
 MEMORY| Cached              243063608     243063608     243063608     243063608
 MEMORY| Slab                  3147808       3147808       3147808       3147808
 MEMORY| SReclaimable          2425756       2425756       2425756       2425756
 MEMORY| MemLikelyFree       366105788     366103928     366105788     366105710


 GENERATE|  Preliminary Number of Bonds generated:                             0
 GENERATE|  Achieved consistency in connectivity generation.

 *******************************************************************************
 *******************************************************************************
 **                                                                           **
 **     #####                         ##              ##                      **
 **    ##   ##            ##          ##              ##                      **
 **   ##     ##                       ##            ######                    **
 **   ##     ##  ##   ##  ##   #####  ##  ##   ####   ##    #####    #####    **
 **   ##     ##  ##   ##  ##  ##      ## ##   ##      ##   ##   ##  ##   ##   **
 **   ##  ## ##  ##   ##  ##  ##      ####     ###    ##   ######   ######    **
 **    ##  ###   ##   ##  ##  ##      ## ##      ##   ##   ##       ##        **
 **     #######   #####   ##   #####  ##  ##  ####    ##    #####   ##        **
 **           ##                                                    ##        **
 **                                                                           **
 **                                                ... make the atoms dance   **
 **                                                                           **
 **            Copyright (C) by CP2K developers group (2000-2021)             **
 **                      J. Chem. Phys. 152, 194103 (2020)                    **
 **                                                                           **
 *******************************************************************************


 TOTAL NUMBERS AND MAXIMUM NUMBERS

  Total number of            - Atomic kinds:                                   2
                             - Atoms:                                          8
                             - Shell sets:                                     8
                             - Shells:                                        28
                             - Primitive Cartesian functions:                 40
                             - Cartesian basis functions:                     58
                             - Spherical basis functions:                     56

  Maximum angular momentum of- Orbital basis functions:                        2
                             - Local part of the GTH pseudopotential:          2
                             - Non-local part of the GTH pseudopotential:      0


 SCF PARAMETERS         Density guess:                                   RESTART
                        --------------------------------------------------------
                        max_scf:                                             100
                        max_scf_history:                                       0
                        max_diis:                                              4
                        --------------------------------------------------------
                        eps_scf:                                        1.00E-06
                        eps_scf_history:                                0.00E+00
                        eps_diis:                                       1.00E-01
                        eps_eigval:                                     1.00E-05
                        --------------------------------------------------------
                        level_shift [a.u.]:                                 0.00
                        --------------------------------------------------------
                        Outer loop SCF in use 
                        No variables optimised in outer loop
                        eps_scf                                         1.00E-06
                        max_scf                                                6
                        No outer loop optimization
                        step_size                                       5.00E-01

 Number of electrons:                                                         14
 Number of occupied orbitals:                                                  7
 Number of molecular orbitals:                                                 7

 Number of orbital functions:                                                 56
 Number of independent orbital functions:                                     56

 Extrapolation method: initial_guess

 *** WARNING in qs_initial_guess.F:309 :: User requested to restart the    ***
 *** wavefunction from the file named: cp2k-RESTART.wfn. This file does    ***
 *** not exist. Please check the existence of the file or change properly  ***
 *** the value of the keyword WFN_RESTART_FILE_NAME. Calculation continues ***
 *** using ATOMIC GUESS.                                                   ***



 SCF WAVEFUNCTION OPTIMIZATION

  ----------------------------------- OT ---------------------------------------
  Minimizer      : CG                  : conjugate gradient
  Preconditioner : FULL_ALL            : diagonalization, state selective
  Precond_solver : DEFAULT
  Line search    : 2PNT                : 2 energies, one gradient
  stepsize       :    0.15000000                  energy_gap     :    0.08000000
  eps_taylor     :   0.10000E-15                  max_taylor     :             4
  ----------------------------------- OT ---------------------------------------

  Step     Update method      Time    Convergence         Total energy    Change
  ------------------------------------------------------------------------------
     1 OT CG       0.15E+00   10.5     0.26476249       -13.3567396617 -1.34E+01
     2 OT LS       0.74E-01    0.3                      -13.3077317924
     3 OT CG       0.74E-01    0.4     0.12841788       -14.6678279963 -1.31E+00
     4 OT LS       0.55E-01    0.2                      -14.8208013560
     5 OT CG       0.55E-01    0.4     0.08473932       -14.8435888828 -1.76E-01
     6 OT LS       0.51E-01    0.3                      -14.9148693716
     7 OT CG       0.51E-01    0.4     0.03999464       -14.9152137617 -7.16E-02
     8 OT LS       0.87E-01    0.2                      -14.9378972833
     9 OT CG       0.87E-01    0.4     0.02119263       -14.9424898088 -2.73E-02
    10 OT LS       0.78E-01    0.3                      -14.9492001284
    11 OT CG       0.78E-01    0.4     0.01100145       -14.9492979949 -6.81E-03
    12 OT LS       0.56E-01    0.2                      -14.9504410504
    13 OT CG       0.56E-01    0.4     0.00566161       -14.9506338124 -1.34E-03
    14 OT LS       0.70E-01    0.2                      -14.9510581801
    15 OT CG       0.70E-01    0.5     0.00256850       -14.9510751727 -4.41E-04
    16 OT LS       0.81E-01    0.2                      -14.9511783179
    17 OT CG       0.81E-01    0.4     0.00123092       -14.9511802813 -1.05E-04
    18 OT LS       0.60E-01    0.2                      -14.9511958282
    19 OT CG       0.60E-01    0.4     0.00073878       -14.9511980936 -1.78E-05
    20 OT LS       0.75E-01    0.2                      -14.9512057798
    21 OT CG       0.75E-01    0.4     0.00035688       -14.9512060915 -8.00E-06
    22 OT LS       0.87E-01    0.2                      -14.9512082207
    23 OT CG       0.87E-01    0.4     0.00017449       -14.9512082638 -2.17E-06
    24 OT LS       0.60E-01    0.2                      -14.9512085461
    25 OT CG       0.60E-01    0.4     0.00010470       -14.9512086204 -3.57E-07
    26 OT LS       0.74E-01    0.2                      -14.9512087736
    27 OT CG       0.74E-01    0.4     0.00005127       -14.9512087796 -1.59E-07
    28 OT LS       0.92E-01    0.2                      -14.9512088252
    29 OT CG       0.92E-01    0.4     0.00002614       -14.9512088270 -4.75E-08
    30 OT LS       0.58E-01    0.2                      -14.9512088322
    31 OT CG       0.58E-01    0.4     0.00001474       -14.9512088348 -7.79E-09
    32 OT LS       0.69E-01    0.2                      -14.9512088377
    33 OT CG       0.69E-01    0.4     0.00000675       -14.9512088378 -2.96E-09
    34 OT LS       0.94E-01    0.2                      -14.9512088386
    35 OT CG       0.94E-01    0.4     0.00000366       -14.9512088386 -8.42E-10
    36 OT LS       0.57E-01    0.2                      -14.9512088387
    37 OT CG       0.57E-01    0.4     0.00000191       -14.9512088388 -1.49E-10
    38 OT LS       0.70E-01    0.2                      -14.9512088388
    39 OT CG       0.70E-01    0.4     0.00000100       -14.9512088388 -5.02E-11
    40 OT LS       0.84E-01    0.3                      -14.9512088388
    41 OT CG       0.84E-01    0.4     0.00000048       -14.9512088389 -1.64E-11

  *** SCF run converged in    41 steps ***


  Electronic density on regular grids:        -14.0000000000        0.0000000000
  Core density on regular grids:               13.9999999989       -0.0000000011
  Total charge density on r-space grids:       -0.0000000010
  Total charge density g-space grids:          -0.0000000010

  Overlap energy of the core charge distribution:               0.00000156459374
  Self energy of the core charge distribution:                -35.13285960674677
  Core Hamiltonian energy:                                     11.39569140228575
  Hartree energy:                                              14.44084641241038
  Exchange-correlation energy:                                 -5.65488861139329

  Total energy:                                               -14.95120883885020

  outer SCF iter =    1 RMS gradient =   0.48E-06 energy =        -14.9512088389
  outer SCF loop converged in   1 iterations or   41 steps


 ENERGY| Total FORCE_EVAL ( QS ) energy [a.u.]:              -14.951208838852857

 -------------------------------------------------------------------------------
 -                                                                             -
 -                                DBCSR STATISTICS                             -
 -                                                                             -
 -------------------------------------------------------------------------------
 COUNTER                                    TOTAL       BLAS       SMM       ACC
 flops     7 x     7 x     7               152978       0.0%    100.0%      0.0%
 flops     5 x    13 x     7               234780       0.0%    100.0%      0.0%
 flops    13 x     5 x     7               234780       0.0%    100.0%      0.0%
 flops     7 x     7 x    13               267540       0.0%    100.0%      0.0%
 flops    13 x    13 x     7               305214       0.0%    100.0%      0.0%
 flops     7 x     7 x     5               308700       0.0%    100.0%      0.0%
 flops     5 x     5 x     7               316050       0.0%    100.0%      0.0%
 flops    26 x     7 x     7               372008       0.0%    100.0%      0.0%
 flops    26 x     7 x    13               416416       0.0%    100.0%      0.0%
 flops    10 x     7 x     7               429240       0.0%    100.0%      0.0%
 flops    26 x     7 x     5               480480       0.0%    100.0%      0.0%
 flops    10 x     7 x    13               480480       0.0%    100.0%      0.0%
 flops    10 x     7 x     5               554400       0.0%    100.0%      0.0%
 flops    13 x     7 x    13               671944       0.0%    100.0%      0.0%
 flops    13 x     7 x     5               775320       0.0%    100.0%      0.0%
 flops     5 x     7 x    13               775320       0.0%    100.0%      0.0%
 flops     5 x     7 x     5               894600       0.0%    100.0%      0.0%
 flops inhomo. stacks                           0       0.0%      0.0%      0.0%
 flops total                         7.670250E+06       0.0%    100.0%      0.0%
 flops max/rank                      3.750600E+06       0.0%    100.0%      0.0%
 matmuls inhomo. stacks                         0       0.0%      0.0%      0.0%
 matmuls total                               9147       0.0%    100.0%      0.0%
 number of processed stacks                  6359       0.0%    100.0%      0.0%
 average stack size                                     0.0       1.4       0.0
 marketing flops                     8.472790E+06
 -------------------------------------------------------------------------------
 # multiplications                            633
 max memory usage/rank             179.449856E+06
 # max total images/rank                        3
 # max 3D layers                                1
 # MPI messages exchanged                  288648
 MPI messages size (bytes):
  total size                        22.380848E+06
  min size                           0.000000E+00
  max size                           2.704000E+03
  average size                      77.536819E+00
 MPI breakdown and total messages size (bytes):
             size <=      128              253992                        0
       128 < size <=     8192               34656                 22380848
      8192 < size <=    32768                   0                        0
     32768 < size <=   131072                   0                        0
    131072 < size <=  4194304                   0                        0
   4194304 < size <= 16777216                   0                        0
  16777216 < size                               0                        0
 -------------------------------------------------------------------------------

 *** WARNING in dbcsr_mm.F:294 :: Using a non-square number of MPI ranks ***
 *** might lead to poor performance. Used ranks: 24 Suggested: 25 49     ***

 -------------------------------------------------------------------------------
 -                                                                             -
 -                      DBCSR MESSAGE PASSING PERFORMANCE                      -
 -                                                                             -
 -------------------------------------------------------------------------------
 ROUTINE             CALLS      AVE VOLUME [Bytes]
 MP_Bcast               18                     12.
 MP_Allreduce         3244                      8.
 MP_Alltoall          2513                   1358.
 MP_ISend            26582                    161.
 MP_IRecv            26582                    108.
 -------------------------------------------------------------------------------

 -------------------------------------------------------------------------------
 -                                                                             -
 -                                GRID STATISTICS                              -
 -                                                                             -
 -------------------------------------------------------------------------------
 LP    KERNEL             BACKEND                              COUNT     PERCENT
 2     collocate ortho    REF                                  28602      38.49%
 3     collocate ortho    REF                                  15960      21.48%
 2     integrate ortho    REF                                  14301      19.25%
 3     integrate ortho    REF                                   7980      10.74%
 4     collocate ortho    REF                                   3948       5.31%
 4     integrate ortho    REF                                   1974       2.66%
 5     integrate ortho    REF                                    681       0.92%
 6     integrate ortho    REF                                    380       0.51%
 0     collocate general  REF                                    192       0.26%
 3     integrate general  REF                                    192       0.26%
 7     integrate ortho    REF                                     94       0.13%
 -------------------------------------------------------------------------------

 MEMORY| Estimated peak process memory [MiB]                                 172

 -------------------------------------------------------------------------------
 -                                                                             -
 -                         MESSAGE PASSING PERFORMANCE                         -
 -                                                                             -
 -------------------------------------------------------------------------------

 ROUTINE             CALLS      AVE VOLUME [Bytes]
 MP_Group                4
 MP_Bcast              755                 487166.
 MP_Allreduce         2230                    157.
 MP_Sync                92
 MP_Alltoall           612                2998307.
 MP_ISendRecv         4416                  53808.
 MP_Wait              6660
 MP_comm_split          44
 MP_ISend             1980                 171665.
 MP_IRecv             1980                 171402.
 MP_Recv                 9                    896.
 -------------------------------------------------------------------------------


 -------------------------------------------------------------------------------
 -                                                                             -
 -                           R E F E R E N C E S                               -
 -                                                                             -
 -------------------------------------------------------------------------------
 
 CP2K version 8.2, the CP2K developers group (2021).
 CP2K is freely available from https://www.cp2k.org/ .

 Kuehne,Thomas D.; Iannuzzi,Marcella; Del Ben,Mauro;
 Rybkin,Vladimir V.; Seewald,Patrick; Stein,Frederick; Laino,Teodoro;
 Khaliullin,Rustam Z.; Schuett,Ole; Schiffmann,Florian; Golze,Dorothea;
 Wilhelm,Jan; Chulkov,Sergey; Bani-Hashemian,Mohammad Hossein;
 Weber,Valery; Borstnik,Urban; Taillefumier,Mathieu;
 Jakobovits,Alice Shoshana; Lazzaro,Alfio; Pabst,Hans; Mueller,Tiziano;
 Schade,Robert; Guidon,Manuel; Andermatt,Samuel; Holmberg,Nico;
 Schenter,Gregory K.; Hehn,Anna; Bussy,Augustin; Belleflamme,Fabian;
 Tabacchi,Gloria; Gloess,Andreas; Lass,Michael; Bethune,Iain;
 Mundy,Christopher J.; Plessl,Christian; Watkins,Matt;
 VandeVondele,Joost; Krack,Matthias; Hutter,Juerg. 
 The Journal of Chemical Physics, 152 (19), (2020). 
 CP2K: An electronic structure and molecular dynamics software package -
 Quickstep: Efficient and accurate electronic structure calculations.
 https://doi.org/10.1063/5.0007045

 Schuett, Ole; Messmer, Peter; Hutter, Juerg; VandeVondele, Joost. 
 Electronic Structure Calculations on Graphics Processing Units, John
 Wiley & Sons, Ltd, 173-190 (2016). 
 GPU-Accelerated Sparse Matrix-Matrix Multiplication for
 Linear Scaling Density Functional Theory.
 https://doi.org/10.1002/9781118670712.ch8

 Heinecke, A; Henry, G; Hutchinson, M; Pabst, H. 
 Proceedings of Intl. Supercomputing Conference, 981-991 (2016). 
 LIBXSMM: Accelerating Small Matrix Multiplications
 by Runtime Code Generation.
 https://doi.org/10.1109/SC.2016.83

 Borstnik, U; VandeVondele, J; Weber, V; Hutter, J. 
 PARALLEL COMPUTING, 40 (5-6), 47-58 (2014). 
 Sparse matrix multiplication: The distributed block-compressed sparse
 row library.
 https://doi.org/10.1016/j.parco.2014.03.012

 Hutter, J; Iannuzzi, M; Schiffmann, F; VandeVondele, J. 
 WIREs Comput Mol Sci., 4 (1), 15-25 (2014). 
 CP2K: atomistic simulations of condensed matter systems.
 https://doi.org/10.1002/wcms.1159

 Marek, A; Blum, V; Johanni, R; Havu, V; Lang, B; Auckenthaler, T;
 Heinecke, A; Bungartz, H; Lederer, H. 
 Journal of Physics: Condensed Matter, 26 (21), (2014). 
 The ELPA library: scalable parallel eigenvalue solutions for
 electronic structure
 theory and computational science.
 https://doi.org/10.1088/0953-8984/26/21/213201

 VandeVondele, J; Hutter, J. 
 JOURNAL OF CHEMICAL PHYSICS, 127 (11), 114105 (2007). 
 Gaussian basis sets for accurate calculations on molecular systems in
 gas and condensed phases.
 https://doi.org/10.1063/1.2770708

 Krack, M. 
 THEORETICAL CHEMISTRY ACCOUNTS, 114 (1-3), 145-152 (2005). 
 Pseudopotentials for H to Kr optimized for gradient-corrected
 exchange-correlation functionals.
 https://doi.org/10.1007/s00214-005-0655-y

 VandeVondele, J; Krack, M; Mohamed, F; Parrinello, M; Chassaing, T;
 Hutter, J. COMPUTER PHYSICS COMMUNICATIONS, 167 (2), 103-128 (2005). 
 QUICKSTEP: Fast and accurate density functional calculations using a
 mixed Gaussian and plane waves approach.
 https://doi.org/10.1016/j.cpc.2004.12.014

 Frigo, M; Johnson, SG. 
 PROCEEDINGS OF THE IEEE, 93 (2), 216-231 (2005). 
 The design and implementation of FFTW3.
 https://doi.org/10.1109/JPROC.2004.840301

 VandeVondele, J; Hutter, J. 
 JOURNAL OF CHEMICAL PHYSICS, 118 (10), 4365-4369 (2003). 
 An efficient orbital transformation method for electronic structure
 calculations.
 https://doi.org/10.1063/1.1543154

 Hartwigsen, C; Goedecker, S; Hutter, J. 
 PHYSICAL REVIEW B, 58 (7), 3641-3662 (1998). 
 Relativistic separable dual-space Gaussian pseudopotentials from H to Rn.
 https://doi.org/10.1103/PhysRevB.58.3641

 Lippert, G; Hutter, J; Parrinello, M. 
 MOLECULAR PHYSICS, 92 (3), 477-487 (1997). 
 A hybrid Gaussian and plane wave density functional scheme.
 https://doi.org/10.1080/002689797170220

 Perdew, JP; Burke, K; Ernzerhof, M. 
 PHYSICAL REVIEW LETTERS, 77 (18), 3865-3868 (1996). 
 Generalized gradient approximation made simple.
 https://doi.org/10.1103/PhysRevLett.77.3865

 Goedecker, S; Teter, M; Hutter, J. 
 PHYSICAL REVIEW B, 54 (3), 1703-1710 (1996). 
 Separable dual-space Gaussian pseudopotentials.
 https://doi.org/10.1103/PhysRevB.54.1703


 -------------------------------------------------------------------------------
 -                                                                             -
 -                                T I M I N G                                  -
 -                                                                             -
 -------------------------------------------------------------------------------
 SUBROUTINE                       CALLS  ASD         SELF TIME        TOTAL TIME
                                MAXIMUM       AVERAGE  MAXIMUM  AVERAGE  MAXIMUM
 CP2K                                 1  1.0    0.189    0.207   35.099   35.101
 qs_forces                            1  2.0    0.001    0.013   32.678   32.690
 qs_energies                          1  3.0    0.001    0.012   29.960   29.966
 scf_env_do_scf                       1  4.0    0.000    0.000   26.096   26.098
 scf_env_do_scf_inner_loop           41  5.0    0.001    0.014   20.908   20.974
 rebuild_ks_matrix                   42  6.9    0.000    0.000   12.341   12.364
 qs_ks_build_kohn_sham_matrix        42  7.9    0.005    0.018   12.341   12.364
 pw_transfer                        619 10.4    0.031    0.048   10.357   10.551
 fft_wrap_pw1pw2                    535 11.5    0.005    0.006   10.297   10.494
 qs_ks_update_qs_env                 42  6.0    0.000    0.000   10.405   10.435
 fft3d_ps                           535 13.5    1.783    2.956    9.555    9.802
 fft_wrap_pw1pw2_200                343 12.7    0.237    0.477    8.819    9.022
 qs_vxc_create                       42  8.9    0.001    0.001    8.309    8.351
 mp_alltoall_z22v                   535 15.5    7.479    7.943    7.479    7.943
 qs_scf_new_mos                      41  6.0    0.000    0.000    7.129    7.206
 qs_scf_loop_do_ot                   41  7.0    0.000    0.000    7.129    7.206
 ot_scf_mini                         41  8.0    0.001    0.001    6.889    6.955
 xc_vxc_pw_create                    22  9.9    0.042    0.061    5.832    5.875
 copy_dbcsr_to_fm                    59 10.9    0.001    0.001    5.671    5.728
 xc_rho_set_and_dset_create          42 10.9    0.019    0.031    4.382    5.604
 dbcsr_complete_redistribute        116 12.0    0.005    0.017    5.476    5.511
 dbcsr_multiply_generic             633 10.9    0.021    0.052    5.213    5.379
 init_scf_loop                        1  5.0    0.000    0.000    4.633    4.696
 qs_rho_update_rho                   42  6.0    0.000    0.000    4.526    4.546
 calculate_rho_elec                  42  7.0    0.025    0.046    4.526    4.545
 x_to_yz                            278 15.1    0.193    0.336    4.211    4.365
 ot_mini                             41  9.0    0.000    0.000    3.910    3.982
 density_rs2pw                       42  8.0    0.002    0.002    3.834    3.924
 yz_to_x                            257 13.7    0.091    0.157    3.552    3.865
 qs_ot_get_derivative                21 10.0    0.001    0.013    3.293    3.360
 mp_alltoall_d11v                   650 13.0    3.053    3.268    3.053    3.268
 sum_up_and_integrate                22  8.9    0.005    0.006    2.654    2.680
 integrate_v_rspace                  22  9.9    0.000    0.001    2.649    2.675
 cp_dbcsr_syevd                      43 10.9    0.003    0.003    2.598    2.624
 qs_ot_get_p                         42  9.0    0.000    0.000    2.476    2.564
 rs_pw_transfer                     258 10.0    0.003    0.004    2.466    2.537
 xc_exc_calc                         20 10.0    0.009    0.010    2.476    2.476
 mp_sum_l                          3291 11.2    2.118    2.452    2.118    2.452
 xc_functional_eval                  42 11.9    0.000    0.000    1.172    2.326
 pbe_lda_eval                        42 12.9    1.172    2.325    1.172    2.325
 prepare_preconditioner               1  6.0    0.000    0.000    2.300    2.304
 potential_pw2rs                     22 10.9    0.001    0.001    2.220    2.240
 mp_waitall_1                     40128 14.7    1.832    2.170    1.832    2.170
 mp_alltoall_i11v                   467 13.1    2.048    2.133    2.048    2.133
 init_scf_run                         1  4.0    0.000    0.000    2.126    2.127
 scf_env_initial_rho_setup            1  5.0    0.000    0.000    2.126    2.127
 qs_ks_update_qs_env_forces           1  3.0    0.000    0.000    2.008    2.018
 qs_ot_p2m_diag                      41 10.0    0.001    0.001    1.893    1.921
 mp_sum_d                          1154  8.0    1.575    1.887    1.575    1.887
 dbcsr_desymmetrize_deep             59 11.9    0.001    0.001    1.793    1.842
 calculate_first_density_matrix       1  6.0    0.000    0.002    1.799    1.820
 subspace_eigenvalues_ks_dbcsr        2  7.5    0.000    0.000    1.770    1.788
 qs_init_subsys                       1  2.0    0.001    0.001    1.736    1.749
 qs_env_setup                         1  3.0    0.000    0.000    1.734    1.735
 mp_cart_sub                        120 12.9    1.681    1.690    1.681    1.690
 multiply_cannon                    633 11.9    0.036    0.051    1.440    1.687
 cp_dbcsr_sm_fm_multiply              5  8.0    0.000    0.000    1.672    1.675
 copy_fm_to_dbcsr                    57 11.1    0.000    0.000    1.604    1.666
 qs_env_rebuild_pw_env                3  3.7    0.000    0.000    1.645    1.657
 pw_env_rebuild                       1  5.0    0.001    0.013    1.645    1.657
 make_m2s                          1266 11.9    0.016    0.048    1.329    1.628
 make_images                       1266 12.9    0.024    0.050    1.262    1.564
 make_images_sizes                 1266 13.9    0.001    0.001    1.101    1.380
 mp_alltoall_i44                   1266 14.9    1.100    1.379    1.100    1.379
 qs_energies_compute_matrix_w         1  4.0    0.000    0.000    1.127    1.145
 calculate_w_matrix_ot                1  5.0    0.000    0.000    1.127    1.145
 hybrid_alltoall_any               1325 14.8    0.007    0.009    1.008    1.123
 cp_fm_syevd                         43 11.9    0.000    0.000    1.091    1.120
 multiply_cannon_loop               633 12.9    0.027    0.052    0.798    1.098
 mp_cart_create                      64 12.6    0.958    1.061    0.958    1.061
 pw_grid_setup                        4  6.0    0.000    0.000    1.020    1.052
 pw_grid_setup_internal               4  7.0    0.001    0.001    1.020    1.051
 multiply_cannon_metrocomm3        7596 13.9    0.007    0.008    0.419    1.014
 rs_pw_transfer_RS2PW_200            43 10.0    0.252    0.337    0.932    1.013
 mp_waitany                        1980 11.9    0.811    0.944    0.811    0.944
 write_mo_set_to_restart             41  6.0    0.002    0.018    0.903    0.916
 mp_sum_b                          1123 12.1    0.517    0.914    0.517    0.914
 mp_allgather_i34                   633 12.9    0.575    0.904    0.575    0.904
 apply_preconditioner_dbcsr          22 11.0    0.000    0.000    0.858    0.892
 apply_all                           22 12.0    0.000    0.000    0.858    0.892
 cp_dbcsr_cholesky_decompose          1 11.0    0.039    0.052    0.839    0.853
 dbcsr_cholesky_invert                1 11.0    0.059    0.066    0.824    0.844
 fft_wrap_pw1pw2_70                  64 12.0    0.009    0.010    0.777    0.839
 mp_sum_dm                           54  3.0    0.693    0.712    0.693    0.712
 -------------------------------------------------------------------------------

 The number of warnings for this run is : 2
 
 -------------------------------------------------------------------------------
  **** **** ******  **  PROGRAM ENDED AT                 2021-10-27 16:23:55.077
 ***** ** ***  *** **   PROGRAM RAN ON                                     node2
 **    ****   ******    PROGRAM RAN BY                                   lujunbo
 ***** **    ** ** **   PROGRAM PROCESS ID                                715764
  **** **  *******  **  PROGRAM STOPPED IN /home/lujunbo/WORK/deepmd/c2h6/mtd/tr
                                           ain_4_sys/cp2k_md/sys_4/data/task_282
                                           8
