       3
 i =        0, time =        0.000, E =       -17.2167223842
  O         0.0200486805       -0.0187945723       -0.0085749020
  H        -0.0230753571        0.0294943788       -0.0060100465
  H         0.0010017992       -0.0112949357        0.0115189404
       3
 i =        1, time =        0.500, E =       -17.2170182669
  O         0.0218158023       -0.0190816242       -0.0104657263
  H        -0.0220275475        0.0279176367       -0.0053014852
  H        -0.0018163326       -0.0094347688        0.0126949176
       3
 i =        2, time =        1.000, E =       -17.2176168008
  O         0.0216789081       -0.0165261318       -0.0132921850
  H        -0.0195442042        0.0235278942       -0.0031656066
  H        -0.0041758225       -0.0075947834        0.0133849519
       3
 i =        3, time =        1.500, E =       -17.2183548431
  O         0.0194126750       -0.0110437947       -0.0168429303
  H        -0.0157291787        0.0164352991        0.0003517033
  H        -0.0057496992       -0.0059740247        0.0134225661
       3
 i =        4, time =        2.000, E =       -17.2190231714
  O         0.0150544985       -0.0028904273       -0.0208370709
  H        -0.0108209906        0.0070199771        0.0050716780
  H        -0.0063365267       -0.0046991125        0.0127034643
       3
 i =        5, time =        2.500, E =       -17.2194473285
  O         0.0090233576        0.0071109552       -0.0248253895
  H        -0.0052663134       -0.0038616926        0.0105504289
  H        -0.0059078489       -0.0038042076        0.0112176959
       3
 i =        6, time =        3.000, E =       -17.2195788780
  O         0.0021494096        0.0174404826       -0.0281000393
  H         0.0002508514       -0.0147485347        0.0159749581
  H        -0.0046116078       -0.0032308880        0.0090604872
       3
 i =        7, time =        3.500, E =       -17.2195375866
  O        -0.0044695274        0.0260424538       -0.0297182135
  H         0.0049045952       -0.0237118582        0.0202061660
  H        -0.0027267444       -0.0028594389        0.0064162963
       3
 i =        8, time =        4.000, E =       -17.2195444674
  O        -0.0097884978        0.0308819247       -0.0287387546
  H         0.0079728904       -0.0288644531        0.0220656304
  H        -0.0005882487       -0.0025510775        0.0035219227
       3
 i =        9, time =        4.500, E =       -17.2197630551
  O        -0.0131671363        0.0307237215       -0.0246446196
  H         0.0091309319       -0.0291017979        0.0208013957
  H         0.0014882809       -0.0021849024        0.0006196268
       3
 i =       10, time =        5.000, E =       -17.2201704700
  O        -0.0145502510        0.0256585958       -0.0176661751
  H         0.0085752463       -0.0246041276        0.0164526761
  H         0.0032538549       -0.0016771336       -0.0020736424
       3
 i =       11, time =        5.500, E =       -17.2205747548
  O        -0.0143526377        0.0169898695       -0.0087616125
  H         0.0068973281       -0.0167197432        0.0098400736
  H         0.0045426861       -0.0009820702       -0.0043979492
       3
 i =       12, time =        6.000, E =       -17.2207570368
  O        -0.0131718993        0.0065858976        0.0007565869
  H         0.0047975534       -0.0073245893        0.0021849427
  H         0.0052646715       -0.0000844805       -0.0062548912
       3
 i =       13, time =        6.500, E =       -17.2206097262
  O        -0.0115339674       -0.0038194917        0.0096662462
  H         0.0028427393        0.0018652930       -0.0053450625
  H         0.0053910851        0.0010089290       -0.0075984394
       3
 i =       14, time =        7.000, E =       -17.2201774926
  O        -0.0097855407       -0.0130107072        0.0171070997
  H         0.0013702152        0.0096674915       -0.0119103748
  H         0.0049405724        0.0022757412       -0.0084224084
       3
 i =       15, time =        7.500, E =       -17.2196088784
  O        -0.0081181650       -0.0203153591        0.0226193043
  H         0.0005181333        0.0154566165       -0.0170369335
  H         0.0039722450        0.0036795072       -0.0087554866
       3
 i =       16, time =        8.000, E =       -17.2190774324
  O        -0.0066415965       -0.0254487592        0.0260514253
  H         0.0002999258        0.0190059506       -0.0205250975
  H         0.0025822857        0.0051703911       -0.0086562439
       3
 i =       17, time =        8.500, E =       -17.2187183808
  O        -0.0054409318       -0.0283284121        0.0274395305
  H         0.0006718837        0.0203066813       -0.0223316298
  H         0.0009013440        0.0066824566       -0.0082109324
       3
 i =       18, time =        9.000, E =       -17.2185958370
  O        -0.0046174060       -0.0289479599        0.0269153254
  H         0.0015728842        0.0194370390       -0.0224827049
  H        -0.0009089404        0.0081361443       -0.0075292811
       3
 i =       19, time =        9.500, E =       -17.2186969839
  O        -0.0042912023       -0.0273267339        0.0246593176
  H         0.0029388106        0.0165111351       -0.0210363308
  H        -0.0026661066        0.0094384030       -0.0067361667
       3
 i =       20, time =       10.000, E =       -17.2189459474
  O        -0.0045773761       -0.0235291735        0.0208964521
  H         0.0046962512        0.0116933104       -0.0180921480
  H        -0.0041813094        0.0104867573       -0.0059576362
       3
 i =       21, time =       10.500, E =       -17.2192329529
  O        -0.0055493114       -0.0177420756        0.0159246685
  H         0.0067438131        0.0052695673       -0.0138378985
  H        -0.0052811192        0.0111792978       -0.0053027462
       3
 i =       22, time =       11.000, E =       -17.2194553522
  O        -0.0071831000       -0.0103827447        0.0101625954
  H         0.0089248133       -0.0022580845       -0.0086167245
  H        -0.0058351532        0.0114263285       -0.0048443990
       3
 i =       23, time =       11.500, E =       -17.2195616582
  O        -0.0093107546       -0.0021944123        0.0041881194
  H         0.0110049420       -0.0100922148       -0.0029788319
  H        -0.0057795276        0.0111659456       -0.0046054568
       3
 i =       24, time =       12.000, E =       -17.2195796446
  O        -0.0116037194        0.0057484661       -0.0012805089
  H         0.0126699872       -0.0171514022        0.0023322531
  H        -0.0051310795        0.0103793672       -0.0045536275
       3
 i =       25, time =       12.500, E =       -17.2196054370
  O        -0.0136135484        0.0121928318       -0.0055012843
  H         0.0135646602       -0.0222273556        0.0065002952
  H        -0.0039885151        0.0091015952       -0.0046096432
       3
 i =       26, time =       13.000, E =       -17.2197465313
  O        -0.0148713681        0.0160292988       -0.0079139210
  H         0.0133809304       -0.0243075327        0.0088606641
  H        -0.0025146349        0.0074196221       -0.0046673550
       3
 i =       27, time =       13.500, E =       -17.2200475419
  O        -0.0150259839        0.0166571430       -0.0083478986
  H         0.0119654006       -0.0229248796        0.0091322738
  H        -0.0009071017        0.0054641121       -0.0046172808
       3
 i =       28, time =       14.000, E =       -17.2204517052
  O        -0.0139477553        0.0141934314       -0.0071000406
  H         0.0093921522       -0.0183470126        0.0075206663
  H         0.0006347165        0.0033883697       -0.0043694229
       3
 i =       29, time =       14.500, E =       -17.2208297833
  O        -0.0117541023        0.0093947709       -0.0048214601
  H         0.0059522826       -0.0114771841        0.0046201292
  H         0.0019410877        0.0013439933       -0.0038672483
       3
 i =       30, time =       15.000, E =       -17.2210542809
  O        -0.0087428464        0.0033532092       -0.0022803499
  H         0.0020665458       -0.0035339079        0.0011827066
  H         0.0028920286       -0.0005371435       -0.0030934053
       3
 i =       31, time =       15.500, E =       -17.2210648834
  O        -0.0052871625       -0.0028422273       -0.0001376965
  H        -0.0018277237        0.0043002187       -0.0021083955
  H         0.0034254935       -0.0021575583       -0.0020672781
       3
 i =       32, time =       16.000, E =       -17.2208880789
  O        -0.0017513852       -0.0083250113        0.0011698032
  H        -0.0053606157        0.0111043192       -0.0047650771
  H         0.0035355019       -0.0034590226       -0.0008380745
       3
 i =       33, time =       16.500, E =       -17.2206124265
  O         0.0015511600       -0.0125094304        0.0014357459
  H        -0.0082627319        0.0162843498       -0.0065078400
  H         0.0032656878       -0.0044221553        0.0005229093
       3
 i =       34, time =       17.000, E =       -17.2203440767
  O         0.0043645187       -0.0150455986        0.0006267119
  H        -0.0103608563        0.0195156219       -0.0072156110
  H         0.0026973739       -0.0050612081        0.0019311766
       3
 i =       35, time =       17.500, E =       -17.2201659832
  O         0.0064805877       -0.0157435120       -0.0011865165
  H        -0.0115556217        0.0206570233       -0.0068663125
  H         0.0019364253       -0.0054169084        0.0032966685
       3
 i =       36, time =       18.000, E =       -17.2201127979
  O         0.0077319902       -0.0145179283       -0.0038809932
  H        -0.0118021987        0.0196848064       -0.0054931090
  H         0.0010994535       -0.0055479368        0.0045318240
       3
 i =       37, time =       18.500, E =       -17.2201645106
  O         0.0080041927       -0.0113775633       -0.0073040998
  H        -0.0111050979        0.0166717899       -0.0031692307
  H         0.0002989222       -0.0055205258        0.0055601656
       3
 i =       38, time =       19.000, E =       -17.2202582076
  O         0.0072620273       -0.0064623415       -0.0112687071
  H        -0.0095287978        0.0118159383       -0.0000219250
  H        -0.0003703179       -0.0053990940        0.0063249009
       3
 i =       39, time =       19.500, E =       -17.2203157644
  O         0.0055877866       -0.0001153442       -0.0155267532
  H        -0.0072254312        0.0055041494        0.0037344900
  H        -0.0008430961       -0.0052382856        0.0067956845
       3
 i =       40, time =       20.000, E =       -17.2202812916
  O         0.0032175512        0.0070451791       -0.0197359760
  H        -0.0044612449       -0.0016219537        0.0077617510
  H        -0.0010922957       -0.0050757863        0.0069726892
       3
 i =       41, time =       20.500, E =       -17.2201546218
  O         0.0005439844        0.0141078693       -0.0234439778
  H        -0.0016220498       -0.0086422037        0.0115841011
  H        -0.0011255279       -0.0049307515        0.0068829512
       3
 i =       42, time =       21.000, E =       -17.2200007036
  O        -0.0019326983        0.0199661985       -0.0261249072
  H         0.0008309961       -0.0144596506        0.0146321570
  H        -0.0009805764       -0.0048042622        0.0065743936
       3
 i =       43, time =       21.500, E =       -17.2199205917
  O        -0.0037205237        0.0235601228       -0.0272827422
  H         0.0024620476       -0.0180344743        0.0163602114
  H        -0.0007107378       -0.0046849697        0.0061029928
       3
 i =       44, time =       22.000, E =       -17.2199933710
  O        -0.0044810396        0.0241921103       -0.0265986580
  H         0.0029924757       -0.0186937994        0.0164061393
  H        -0.0003705559       -0.0045549840        0.0055206673
       3
 i =       45, time =       22.500, E =       -17.2202252117
  O        -0.0041375918        0.0217686561       -0.0240495709
  H         0.0023969500       -0.0163687423        0.0147191267
  H        -0.0000048356       -0.0043951677        0.0048662935
       3
 i =       46, time =       23.000, E =       -17.2205430472
  O        -0.0028844932        0.0168249688       -0.0199272886
  H         0.0009070321       -0.0116128141        0.0115801710
  H         0.0003557393       -0.0041885364        0.0041621714
       3
 i =       47, time =       23.500, E =       -17.2208373048
  O        -0.0010955542        0.0103202963       -0.0147455193
  H        -0.0010794918       -0.0053978692        0.0075027558
  H         0.0006928020       -0.0039205623        0.0034168389
       3
 i =       48, time =       24.000, E =       -17.2210211232
  O         0.0008105897        0.0033295735       -0.0090906256
  H        -0.0031295481        0.0011962032        0.0030744540
  H         0.0009954763       -0.0035783820        0.0026307687
       3
 i =       49, time =       24.500, E =       -17.2210674036
  O         0.0024821762       -0.0032138402       -0.0034936758
  H        -0.0048794955        0.0072368303       -0.0011796021
  H         0.0012528938       -0.0031493154        0.0018045451
       3
 i =       50, time =       25.000, E =       -17.2210086663
  O         0.0036846004       -0.0086400938        0.0016338941
  H        -0.0060821512        0.0120602012       -0.0048653683
  H         0.0014509897       -0.0026217586        0.0009441968
       3
 i =       51, time =       25.500, E =       -17.2209102688
  O         0.0042993526       -0.0125456987        0.0060068037
  H        -0.0066044334        0.0152731475       -0.0077263866
  H         0.0015725218       -0.0019864720        0.0000632736
       3
 i =       52, time =       26.000, E =       -17.2208365521
  O         0.0042985733       -0.0147372222        0.0094399714
  H        -0.0064010840        0.0166927242       -0.0096161026
  H         0.0015973618       -0.0012375483       -0.0008158961
       3
 i =       53, time =       26.500, E =       -17.2208247422
  O         0.0037139518       -0.0151675475        0.0118207226
  H        -0.0054865939        0.0162816156       -0.0104661969
  H         0.0015062095       -0.0003754646       -0.0016648477
       3
 i =       54, time =       27.000, E =       -17.2208731781
  O         0.0026109359       -0.0139049853        0.0130803067
  H        -0.0039180346        0.0141075901       -0.0102676651
  H         0.0012855739        0.0005901793       -0.0024519861
       3
 i =       55, time =       27.500, E =       -17.2209448234
  O         0.0010700805       -0.0111155383        0.0131760582
  H        -0.0017910221        0.0103388249       -0.0090716712
  H         0.0009319465        0.0016381997       -0.0031462646
       3
 i =       56, time =       28.000, E =       -17.2209839821
  O        -0.0007858426       -0.0070591787        0.0121843927
  H         0.0007532148        0.0052737636       -0.0070086403
  H         0.0004554842        0.0027338952       -0.0037201769
       3
 i =       57, time =       28.500, E =       -17.2209417179
  O        -0.0027775814       -0.0021579219        0.0103363815
  H         0.0035171834       -0.0006265232       -0.0043159956
  H        -0.0001191580        0.0038291252       -0.0041522992
       3
 i =       58, time =       29.000, E =       -17.2208018754
  O        -0.0046810027        0.0029879869        0.0079996140
  H         0.0062442629       -0.0067139535       -0.0013549681
  H        -0.0007512183        0.0048643876       -0.0044314658
       3
 i =       59, time =       29.500, E =       -17.2205955671
  O        -0.0062422550        0.0076388952        0.0056553185
  H         0.0086341383       -0.0121946891        0.0014093805
  H        -0.0013882157        0.0057732437       -0.0045569788
       3
 i =       60, time =       30.000, E =       -17.2203929304
  O        -0.0072146159        0.0110303373        0.0038234641
  H         0.0103852645       -0.0162505869        0.0034805578
  H        -0.0019712969        0.0064910545       -0.0045391026
       3
 i =       61, time =       30.500, E =       -17.2202714243
  O        -0.0074159134        0.0125511881        0.0029424869
  H         0.0112581648       -0.0182220960        0.0044510821
  H        -0.0024412357        0.0069620170       -0.0043997558
       3
 i =       62, time =       31.000, E =       -17.2202760472
  O        -0.0067820294        0.0119224224        0.0032427790
  H         0.0111374938       -0.0177940056        0.0041255409
  H        -0.0027476246        0.0071480638       -0.0041692951
       3
 i =       63, time =       31.500, E =       -17.2203960072
  O        -0.0053924287        0.0092885765        0.0046787105
  H         0.0100650063       -0.0150910003        0.0025849088
  H        -0.0028555128        0.0070345183       -0.0038827540
       3
 i =       64, time =       32.000, E =       -17.2205732027
  O        -0.0034508062        0.0051703620        0.0069547648
  H         0.0082257992       -0.0106334009        0.0001564297
  H        -0.0027499770        0.0066312815       -0.0035746082
       3
 i =       65, time =       32.500, E =       -17.2207357399
  O        -0.0012305515        0.0003048489        0.0096303318
  H         0.0058952112       -0.0051781082       -0.0026936827
  H        -0.0024370418        0.0059710078       -0.0032740685
       3
 i =       66, time =       33.000, E =       -17.2208338877
  O         0.0009921426       -0.0045467342        0.0122432832
  H         0.0033731986        0.0004774202       -0.0054877439
  H        -0.0019435936        0.0051024854       -0.0029991798
       3
 i =       67, time =       33.500, E =       -17.2208585351
  O         0.0029866687       -0.0087419759        0.0144028123
  H         0.0009317365        0.0056399831       -0.0078304084
  H        -0.0013129748        0.0040853555       -0.0027554855
       3
 i =       68, time =       34.000, E =       -17.2208369246
  O         0.0045909761       -0.0118223466        0.0158284793
  H        -0.0012131413        0.0097951144       -0.0094486248
  H        -0.0006004769        0.0029830028       -0.0025352682
       3
 i =       69, time =       34.500, E =       -17.2208133093
  O         0.0057101403       -0.0135106489        0.0163480164
  H        -0.0029061644        0.0126113249       -0.0101872068
  H         0.0001333848        0.0018569050       -0.0023201684
       3
 i =       70, time =       35.000, E =       -17.2208262725
  O         0.0063050936       -0.0136783498        0.0158756860
  H        -0.0040460094        0.0139042373       -0.0099853039
  H         0.0008266485        0.0007638003       -0.0020841273
       3
 i =       71, time =       35.500, E =       -17.2208917311
  O         0.0063780365       -0.0123109190        0.0143928027
  H        -0.0045768054        0.0136102578       -0.0088522960
  H         0.0014212951       -0.0002472338       -0.0017985607
       3
 i =       72, time =       36.000, E =       -17.2209962497
  O         0.0059654694       -0.0094922197        0.0119401928
  H        -0.0044852157        0.0117696696       -0.0068558946
  H         0.0018678216       -0.0011364033       -0.0014355029
       3
 i =       73, time =       36.500, E =       -17.2211019415
  O         0.0051403856       -0.0054128233        0.0086252033
  H        -0.0038063446        0.0085360736       -0.0041240885
  H         0.0021284591       -0.0018745010       -0.0009716537
       3
 i =       74, time =       37.000, E =       -17.2211616169
  O         0.0040232806       -0.0003968580        0.0046378230
  H        -0.0026368011        0.0042053008       -0.0008575757
  H         0.0021790206       -0.0024436708       -0.0003908503
       3
 i =       75, time =       37.500, E =       -17.2211398618
  O         0.0027912852        0.0050740846        0.0002660506
  H        -0.0011469699       -0.0007565398        0.0026591215
  H         0.0020129539       -0.0028390699        0.0003120730
       3
 i =       76, time =       38.000, E =       -17.2210319741
  O         0.0016783991        0.0103648101       -0.0041076693
  H         0.0004171931       -0.0057195580        0.0060624817
  H         0.0016425383       -0.0030691371        0.0011296144
       3
 i =       77, time =       38.500, E =       -17.2208705530
  O         0.0009490535        0.0147520790       -0.0080423179
  H         0.0017586755       -0.0099490614        0.0089469350
  H         0.0011015513       -0.0031563120        0.0020382064
       3
 i =       78, time =       39.000, E =       -17.2207129386
  O         0.0008425813        0.0175590113       -0.0111121073
  H         0.0025844124       -0.0127421076        0.0109385790
  H         0.0004446681       -0.0031355495        0.0029968727
       3
 i =       79, time =       39.500, E =       -17.2206132552
  O         0.0014980604        0.0183300297       -0.0129978692
  H         0.0026801534       -0.0136027612        0.0117861634
  H        -0.0002529196       -0.0030528794        0.0039458916
       3
 i =       80, time =       40.000, E =       -17.2205947330
  O         0.0028948088        0.0169717605       -0.0135617099
  H         0.0019756138       -0.0123870261        0.0114314445
  H        -0.0009014810       -0.0029601203        0.0048103008
       3
 i =       81, time =       40.500, E =       -17.2206401842
  O         0.0048393720        0.0137892729       -0.0128687063
  H         0.0005675568       -0.0093460037        0.0100232674
  H        -0.0014071263       -0.0029079230        0.0055073513
       3
 i =       82, time =       41.000, E =       -17.2207063918
  O         0.0070113731        0.0093946410       -0.0111484254
  H        -0.0013107760       -0.0050442219        0.0078675925
  H        -0.0016864711       -0.0029370860        0.0059583354
       3
 i =       83, time =       41.500, E =       -17.2207513389
  O         0.0090474145        0.0045349904       -0.0087201620
  H        -0.0033571891       -0.0001955854        0.0053402640
  H        -0.0016817857       -0.0030702030        0.0061019523
       3
 i =       84, time =       42.000, E =       -17.2207562695
  O         0.0106281441       -0.0000831889       -0.0059194334
  H        -0.0052742220        0.0045004046        0.0028014218
  H        -0.0013745426       -0.0033049551        0.0059072998
       3
 i =       85, time =       42.500, E =       -17.2207314181
  O         0.0115344046       -0.0039079402       -0.0030510187
  H        -0.0068179738        0.0084751048        0.0005427903
  H        -0.0007909397       -0.0036126185        0.0053805893
       3
 i =       86, time =       43.000, E =       -17.2207063083
  O         0.0116668550       -0.0065852127       -0.0003694702
  H        -0.0078201572        0.0113307633       -0.0012320123
  H         0.0000001255       -0.0039412803        0.0045658691
       3
 i =       87, time =       43.500, E =       -17.2207128336
  O         0.0110331651       -0.0079437912        0.0019216660
  H        -0.0081868765        0.0128361224       -0.0024003130
  H         0.0008982865       -0.0042243828        0.0035377410
       3
 i =       88, time =       44.000, E =       -17.2207698676
  O         0.0097237538       -0.0079607968        0.0036650322
  H        -0.0078881860        0.0128994598       -0.0029060145
  H         0.0017852062       -0.0043902806        0.0023919797
       3
 i =       89, time =       44.500, E =       -17.2208748412
  O         0.0078839134       -0.0067280223        0.0047517990
  H        -0.0069480923        0.0115466865       -0.0027483567
  H         0.0025421785       -0.0043734021        0.0012320834
       3
 i =       90, time =       45.000, E =       -17.2210042219
  O         0.0056939691       -0.0044349452        0.0051313692
  H        -0.0054400118        0.0089136347       -0.0019795917
  H         0.0030650030       -0.0041235525        0.0001574309
       3
 i =       91, time =       45.500, E =       -17.2211222319
  O         0.0033585005       -0.0013687788        0.0048273996
  H        -0.0034871356        0.0052528634       -0.0007114264
  H         0.0032752151       -0.0036128012       -0.0007459427
       3
 i =       92, time =       46.000, E =       -17.2211949633
  O         0.0010965283        0.0020825703        0.0039551892
  H        -0.0012625458        0.0009440129        0.0008764606
  H         0.0031299505       -0.0028402686       -0.0014143960
       3
 i =       93, time =       46.500, E =       -17.2212048030
  O        -0.0008689609        0.0054388463        0.0027273840
  H         0.0010170793       -0.0035134628        0.0025363522
  H         0.0026262392       -0.0018331834       -0.0018120164
       3
 i =       94, time =       47.000, E =       -17.2211586015
  O        -0.0023332389        0.0081696040        0.0014388720
  H         0.0031109552       -0.0075419472        0.0039712925
  H         0.0018032744       -0.0006461226       -0.0019351808
       3
 i =       95, time =       47.500, E =       -17.2210844466
  O        -0.0031445763        0.0097790108        0.0004219817
  H         0.0047901749       -0.0105726593        0.0048817390
  H         0.0007406449        0.0006429128       -0.0018146105
       3
 i =       96, time =       48.000, E =       -17.2210172744
  O        -0.0032408025        0.0099154116       -0.0000224502
  H         0.0058810993       -0.0121621049        0.0050315188
  H        -0.0004476923        0.0019399780       -0.0015131749
       3
 i =       97, time =       48.500, E =       -17.2209807597
  O        -0.0026769820        0.0084707547        0.0003049612
  H         0.0063030825       -0.0121013268        0.0043121958
  H        -0.0016245783        0.0031445972       -0.0011215323
       3
 i =       98, time =       49.000, E =       -17.2209763203
  O        -0.0016224505        0.0056196978        0.0014555956
  H         0.0060834076       -0.0104652508        0.0027766504
  H        -0.0026483086        0.0041624191       -0.0007450903
       3
 i =       99, time =       49.500, E =       -17.2209857394
  O        -0.0003273955        0.0017798150        0.0033303832
  H         0.0053437887       -0.0075872904        0.0006260643
  H        -0.0033914122        0.0049170586       -0.0004881404
       3
 i =      100, time =       50.000, E =       -17.2209846770
  O         0.0009350736       -0.0024952506        0.0057145428
  H         0.0042639455       -0.0039627904       -0.0018441478
  H        -0.0037615804        0.0053607539       -0.0004345395
       3
 i =      101, time =       50.500, E =       -17.2209577558
  O         0.0019255693       -0.0066386688        0.0083320326
  H         0.0030396161       -0.0001367939       -0.0043132362
  H        -0.0037160490        0.0054797379       -0.0006327367
       3
 i =      102, time =       51.000, E =       -17.2209066361
  O         0.0024792229       -0.0101691706        0.0108937790
  H         0.0018487560        0.0033980096       -0.0064931041
  H        -0.0032687333        0.0052946408       -0.0010851026
       3
 i =      103, time =       51.500, E =       -17.2208483256
  O         0.0025208289       -0.0127429262        0.0131319452
  H         0.0008323191        0.0062532914       -0.0081626017
  H        -0.0024859899        0.0048550702       -0.0017486842
       3
 i =      104, time =       52.000, E =       -17.2208065629
  O         0.0020584111       -0.0141604894        0.0148163034
  H         0.0000892115        0.0081648128       -0.0091761750
  H        -0.0014750268        0.0042308906       -0.0025424432
       3
 i =      105, time =       52.500, E =       -17.2208013125
  O         0.0011621378       -0.0143487196        0.0157642718
  H        -0.0003213510        0.0089822055       -0.0094595950
  H        -0.0003652961        0.0035010300       -0.0033632068
       3
 i =      106, time =       53.000, E =       -17.2208406434
  O        -0.0000572228       -0.0133380146        0.0158475017
  H        -0.0003754408        0.0086576574       -0.0090006883
  H         0.0007088902        0.0027440268       -0.0040994602
       3
 i =      107, time =       53.500, E =       -17.2209174678
  O        -0.0014662582       -0.0112462754        0.0150013772
  H        -0.0000821769        0.0072381150       -0.0078437340
  H         0.0016243414        0.0020298890       -0.0046477644
       3
 i =      108, time =       54.000, E =       -17.2210119304
  O        -0.0029205614       -0.0082739683        0.0132372723
  H         0.0005153077        0.0048658555       -0.0060885025
  H         0.0022818983        0.0014139449       -0.0049239667
       3
 i =      109, time =       54.500, E =       -17.2210987192
  O        -0.0042682248       -0.0047085821        0.0106535023
  H         0.0013366216        0.0017870835       -0.0038928190
  H         0.0026132951        0.0009338311       -0.0048703130
       3
 i =      110, time =       55.000, E =       -17.2211569504
  O        -0.0053529996       -0.0009243742        0.0074402742
  H         0.0022625858       -0.0016462842       -0.0014713396
  H         0.0025860768        0.0006076507       -0.0044604733
       3
 i =      111, time =       55.500, E =       -17.2211787132
  O        -0.0060217038        0.0026356500        0.0038708195
  H         0.0031401111       -0.0049960451        0.0009166653
  H         0.0022057078        0.0004334249       -0.0037014251
       3
 i =      112, time =       56.000, E =       -17.2211719453
  O        -0.0061423409        0.0055088643        0.0002744286
  H         0.0037987781       -0.0077819608        0.0029972679
  H         0.0015167880        0.0003889986       -0.0026353319
       3