 DBCSR| CPU Multiplication driver                                           XSMM
 DBCSR| Multrec recursion limit                                              512
 DBCSR| Multiplication stack size                                           1000
 DBCSR| Maximum elements for images                                    UNLIMITED
 DBCSR| Multiplicative factor virtual images                                   1
 DBCSR| Use multiplication densification                                       T
 DBCSR| Multiplication size stacks                                             3
 DBCSR| Use memory pool for CPU allocation                                     F
 DBCSR| Number of 3D layers                                               SINGLE
 DBCSR| Use MPI memory allocation                                              F
 DBCSR| Use RMA algorithm                                                      F
 DBCSR| Use Communication thread                                               T
 DBCSR| Communication thread load                                             87
 DBCSR| MPI: My node id                                                        0
 DBCSR| MPI: Number of nodes                                                  24
 DBCSR| OMP: Current number of threads                                         1
 DBCSR| OMP: Max number of threads                                             1
 DBCSR| Split modifier for TAS multiplication algorithm                  1.0E+00


  **** **** ******  **  PROGRAM STARTED AT               2021-10-27 15:34:21.911
 ***** ** ***  *** **   PROGRAM STARTED ON                                node10
 **    ****   ******    PROGRAM STARTED BY                               lujunbo
 ***** **    ** ** **   PROGRAM PROCESS ID                                341286
  **** **  *******  **  PROGRAM STARTED IN /home/lujunbo/WORK/deepmd/c2h6/mtd/tr
                                           ain_4_sys/cp2k_md/sys_4/data/task_251
                                           2

 CP2K| version string:                                          CP2K version 8.2
 CP2K| source code revision number:                                  git:310b7ab
 CP2K| cp2kflags: omp libint fftw3 libxc elpa parallel mpi3 scalapack xsmm plume
 CP2K|            d2 spglib mkl libvori libbqb
 CP2K| is freely available from                            https://www.cp2k.org/
 CP2K| Program compiled at                          Tue Jun  1 15:18:23 CST 2021
 CP2K| Program compiled on                                                   mgr
 CP2K| Program compiled for                                                local
 CP2K| Data directory path                       /home/lujunbo/bin/cp2k-8.2/data
 CP2K| Input file name                                                 input.inp

 GLOBAL| Force Environment number                                              1
 GLOBAL| Basis set file name            /home/lujunbo/bin/cp2k-8.2/data/BASIS_MO
 GLOBAL| Potential file name            /home/lujunbo/bin/cp2k-8.2/data/POTENTIA
 GLOBAL| MM Potential file name                                     MM_POTENTIAL
 GLOBAL| Coordinate file name                                      __STD_INPUT__
 GLOBAL| Method name                                                        CP2K
 GLOBAL| Project name                                                       cp2k
 GLOBAL| Run type                                                   ENERGY_FORCE
 GLOBAL| FFT library                                                       FFTW3
 GLOBAL| Diagonalization library                                            ELPA
 GLOBAL| Minimum number of eigenvectors for ELPA usage                        16
 GLOBAL| Orthonormality check for eigenvectors                          DISABLED
 GLOBAL| Matrix multiplication library                                    SCALAP
 GLOBAL| All-to-all communication in single precision                          F
 GLOBAL| FFTs using library dependent lengths                                  F
 GLOBAL| Grid backend                                                       AUTO
 GLOBAL| Global print level                                                  LOW
 GLOBAL| MPI I/O enabled                                                       T
 GLOBAL| Total number of message passing processes                            24
 GLOBAL| Number of threads for this process                                    1
 GLOBAL| This output is from process                                           0
 GLOBAL| CPU model name             Intel(R) Xeon(R) Platinum 9242 CPU @ 2.30GHz
 GLOBAL| CPUID                                                              1003

 MEMORY| system memory details [Kb]
 MEMORY|                        rank 0           min           max       average
 MEMORY| MemTotal            394609400     394609400     394609400     394609400
 MEMORY| MemFree             299493084     299492236     299493084     299492942
 MEMORY| Buffers                179260        179260        179260        179260
 MEMORY| Cached               62923940      62923932      62923940      62923938
 MEMORY| Slab                  1286824       1286824       1286824       1286824
 MEMORY| SReclaimable           599904        599904        599904        599904
 MEMORY| MemLikelyFree       363196188     363195332     363196188     363196045


 GENERATE|  Preliminary Number of Bonds generated:                             0
 GENERATE|  Achieved consistency in connectivity generation.

 *******************************************************************************
 *******************************************************************************
 **                                                                           **
 **     #####                         ##              ##                      **
 **    ##   ##            ##          ##              ##                      **
 **   ##     ##                       ##            ######                    **
 **   ##     ##  ##   ##  ##   #####  ##  ##   ####   ##    #####    #####    **
 **   ##     ##  ##   ##  ##  ##      ## ##   ##      ##   ##   ##  ##   ##   **
 **   ##  ## ##  ##   ##  ##  ##      ####     ###    ##   ######   ######    **
 **    ##  ###   ##   ##  ##  ##      ## ##      ##   ##   ##       ##        **
 **     #######   #####   ##   #####  ##  ##  ####    ##    #####   ##        **
 **           ##                                                    ##        **
 **                                                                           **
 **                                                ... make the atoms dance   **
 **                                                                           **
 **            Copyright (C) by CP2K developers group (2000-2021)             **
 **                      J. Chem. Phys. 152, 194103 (2020)                    **
 **                                                                           **
 *******************************************************************************


 TOTAL NUMBERS AND MAXIMUM NUMBERS

  Total number of            - Atomic kinds:                                   2
                             - Atoms:                                          8
                             - Shell sets:                                     8
                             - Shells:                                        28
                             - Primitive Cartesian functions:                 40
                             - Cartesian basis functions:                     58
                             - Spherical basis functions:                     56

  Maximum angular momentum of- Orbital basis functions:                        2
                             - Local part of the GTH pseudopotential:          2
                             - Non-local part of the GTH pseudopotential:      0


 SCF PARAMETERS         Density guess:                                   RESTART
                        --------------------------------------------------------
                        max_scf:                                             100
                        max_scf_history:                                       0
                        max_diis:                                              4
                        --------------------------------------------------------
                        eps_scf:                                        1.00E-06
                        eps_scf_history:                                0.00E+00
                        eps_diis:                                       1.00E-01
                        eps_eigval:                                     1.00E-05
                        --------------------------------------------------------
                        level_shift [a.u.]:                                 0.00
                        --------------------------------------------------------
                        Outer loop SCF in use 
                        No variables optimised in outer loop
                        eps_scf                                         1.00E-06
                        max_scf                                                6
                        No outer loop optimization
                        step_size                                       5.00E-01

 Number of electrons:                                                         14
 Number of occupied orbitals:                                                  7
 Number of molecular orbitals:                                                 7

 Number of orbital functions:                                                 56
 Number of independent orbital functions:                                     56

 Extrapolation method: initial_guess

 *** WARNING in qs_initial_guess.F:309 :: User requested to restart the    ***
 *** wavefunction from the file named: cp2k-RESTART.wfn. This file does    ***
 *** not exist. Please check the existence of the file or change properly  ***
 *** the value of the keyword WFN_RESTART_FILE_NAME. Calculation continues ***
 *** using ATOMIC GUESS.                                                   ***



 SCF WAVEFUNCTION OPTIMIZATION

  ----------------------------------- OT ---------------------------------------
  Minimizer      : CG                  : conjugate gradient
  Preconditioner : FULL_ALL            : diagonalization, state selective
  Precond_solver : DEFAULT
  Line search    : 2PNT                : 2 energies, one gradient
  stepsize       :    0.15000000                  energy_gap     :    0.08000000
  eps_taylor     :   0.10000E-15                  max_taylor     :             4
  ----------------------------------- OT ---------------------------------------

  Step     Update method      Time    Convergence         Total energy    Change
  ------------------------------------------------------------------------------
     1 OT CG       0.15E+00    0.2     0.26173914       -13.3304950965 -1.33E+01
     2 OT LS       0.75E-01    0.1                      -13.3570582803
     3 OT CG       0.75E-01    0.2     0.13292354       -14.6567555272 -1.33E+00
     4 OT LS       0.53E-01    0.1                      -14.8067690131
     5 OT CG       0.53E-01    0.2     0.08747594       -14.8401122393 -1.83E-01
     6 OT LS       0.49E-01    0.1                      -14.9131695585
     7 OT CG       0.49E-01    0.2     0.04025333       -14.9135826703 -7.35E-02
     8 OT LS       0.87E-01    0.1                      -14.9360826932
     9 OT CG       0.87E-01    0.2     0.02163070       -14.9412438138 -2.77E-02
    10 OT LS       0.80E-01    0.1                      -14.9484233122
    11 OT CG       0.80E-01    0.2     0.01092683       -14.9484913679 -7.25E-03
    12 OT LS       0.58E-01    0.1                      -14.9496497171
    13 OT CG       0.58E-01    0.2     0.00599734       -14.9498396193 -1.35E-03
    14 OT LS       0.68E-01    0.1                      -14.9503105005
    15 OT CG       0.68E-01    0.2     0.00261602       -14.9503221020 -4.82E-04
    16 OT LS       0.80E-01    0.1                      -14.9504265433
    17 OT CG       0.80E-01    0.2     0.00117251       -14.9504286091 -1.07E-04
    18 OT LS       0.64E-01    0.1                      -14.9504449161
    19 OT CG       0.64E-01    0.2     0.00076057       -14.9504459026 -1.73E-05
    20 OT LS       0.72E-01    0.1                      -14.9504539929
    21 OT CG       0.72E-01    0.2     0.00037909       -14.9504540948 -8.19E-06
    22 OT LS       0.79E-01    0.1                      -14.9504563012
    23 OT CG       0.79E-01    0.2     0.00015766       -14.9504563170 -2.22E-06
    24 OT LS       0.72E-01    0.1                      -14.9504566674
    25 OT CG       0.72E-01    0.2     0.00010945       -14.9504566702 -3.53E-07
    26 OT LS       0.64E-01    0.1                      -14.9504568182
    27 OT CG       0.64E-01    0.2     0.00005209       -14.9504568207 -1.51E-07
    28 OT LS       0.88E-01    0.1                      -14.9504568641
    29 OT CG       0.88E-01    0.2     0.00002399       -14.9504568676 -4.69E-08
    30 OT LS       0.74E-01    0.1                      -14.9504568756
    31 OT CG       0.74E-01    0.2     0.00001577       -14.9504568759 -8.30E-09
    32 OT LS       0.59E-01    0.1                      -14.9504568786
    33 OT CG       0.59E-01    0.2     0.00000695       -14.9504568788 -2.86E-09
    34 OT LS       0.85E-01    0.1                      -14.9504568795
    35 OT CG       0.85E-01    0.2     0.00000336       -14.9504568796 -8.00E-10
    36 OT LS       0.74E-01    0.1                      -14.9504568797
    37 OT CG       0.74E-01    0.2     0.00000202       -14.9504568797 -1.64E-10
    38 OT LS       0.61E-01    0.1                      -14.9504568798
    39 OT CG       0.61E-01    0.2     0.00000107       -14.9504568798 -4.82E-11
    40 OT LS       0.76E-01    0.1                      -14.9504568798
    41 OT CG       0.76E-01    0.2     0.00000047       -14.9504568798 -1.70E-11

  *** SCF run converged in    41 steps ***


  Electronic density on regular grids:        -14.0000000000        0.0000000000
  Core density on regular grids:               13.9999999989       -0.0000000011
  Total charge density on r-space grids:       -0.0000000010
  Total charge density g-space grids:          -0.0000000010

  Overlap energy of the core charge distribution:               0.00000146241213
  Self energy of the core charge distribution:                -35.13285960674677
  Core Hamiltonian energy:                                     11.36856259100393
  Hartree energy:                                              14.46021914221305
  Exchange-correlation energy:                                 -5.64638046866222

  Total energy:                                               -14.95045687977989

  outer SCF iter =    1 RMS gradient =   0.47E-06 energy =        -14.9504568798
  outer SCF loop converged in   1 iterations or   41 steps


 ENERGY| Total FORCE_EVAL ( QS ) energy [a.u.]:              -14.950456879783236

 -------------------------------------------------------------------------------
 -                                                                             -
 -                                DBCSR STATISTICS                             -
 -                                                                             -
 -------------------------------------------------------------------------------
 COUNTER                                    TOTAL       BLAS       SMM       ACC
 flops     7 x     7 x     7               152978       0.0%    100.0%      0.0%
 flops     5 x    13 x     7               234780       0.0%    100.0%      0.0%
 flops    13 x     5 x     7               234780       0.0%    100.0%      0.0%
 flops     7 x     7 x    13               267540       0.0%    100.0%      0.0%
 flops    13 x    13 x     7               305214       0.0%    100.0%      0.0%
 flops     7 x     7 x     5               308700       0.0%    100.0%      0.0%
 flops     5 x     5 x     7               316050       0.0%    100.0%      0.0%
 flops    26 x     7 x     7               372008       0.0%    100.0%      0.0%
 flops    26 x     7 x    13               416416       0.0%    100.0%      0.0%
 flops    10 x     7 x     7               429240       0.0%    100.0%      0.0%
 flops    26 x     7 x     5               480480       0.0%    100.0%      0.0%
 flops    10 x     7 x    13               480480       0.0%    100.0%      0.0%
 flops    10 x     7 x     5               554400       0.0%    100.0%      0.0%
 flops    13 x     7 x    13               671944       0.0%    100.0%      0.0%
 flops    13 x     7 x     5               775320       0.0%    100.0%      0.0%
 flops     5 x     7 x    13               775320       0.0%    100.0%      0.0%
 flops     5 x     7 x     5               894600       0.0%    100.0%      0.0%
 flops inhomo. stacks                           0       0.0%      0.0%      0.0%
 flops total                         7.670250E+06       0.0%    100.0%      0.0%
 flops max/rank                      3.750600E+06       0.0%    100.0%      0.0%
 matmuls inhomo. stacks                         0       0.0%      0.0%      0.0%
 matmuls total                               9147       0.0%    100.0%      0.0%
 number of processed stacks                  6359       0.0%    100.0%      0.0%
 average stack size                                     0.0       1.4       0.0
 marketing flops                     8.472790E+06
 -------------------------------------------------------------------------------
 # multiplications                            633
 max memory usage/rank             179.343360E+06
 # max total images/rank                        3
 # max 3D layers                                1
 # MPI messages exchanged                  288648
 MPI messages size (bytes):
  total size                        22.380848E+06
  min size                           0.000000E+00
  max size                           2.704000E+03
  average size                      77.536819E+00
 MPI breakdown and total messages size (bytes):
             size <=      128              253992                        0
       128 < size <=     8192               34656                 22380848
      8192 < size <=    32768                   0                        0
     32768 < size <=   131072                   0                        0
    131072 < size <=  4194304                   0                        0
   4194304 < size <= 16777216                   0                        0
  16777216 < size                               0                        0
 -------------------------------------------------------------------------------

 *** WARNING in dbcsr_mm.F:294 :: Using a non-square number of MPI ranks ***
 *** might lead to poor performance. Used ranks: 24 Suggested: 25 49     ***

 -------------------------------------------------------------------------------
 -                                                                             -
 -                      DBCSR MESSAGE PASSING PERFORMANCE                      -
 -                                                                             -
 -------------------------------------------------------------------------------
 ROUTINE             CALLS      AVE VOLUME [Bytes]
 MP_Bcast               18                     12.
 MP_Allreduce         3244                      8.
 MP_Alltoall          2513                   1358.
 MP_ISend            26582                    161.
 MP_IRecv            26582                    108.
 -------------------------------------------------------------------------------

 -------------------------------------------------------------------------------
 -                                                                             -
 -                                GRID STATISTICS                              -
 -                                                                             -
 -------------------------------------------------------------------------------
 LP    KERNEL             BACKEND                              COUNT     PERCENT
 2     collocate ortho    REF                                  28476      38.46%
 3     collocate ortho    REF                                  15918      21.50%
 2     integrate ortho    REF                                  14238      19.23%
 3     integrate ortho    REF                                   7959      10.75%
 4     collocate ortho    REF                                   3948       5.33%
 4     integrate ortho    REF                                   1974       2.67%
 5     integrate ortho    REF                                    678       0.92%
 6     integrate ortho    REF                                    379       0.51%
 0     collocate general  REF                                    192       0.26%
 3     integrate general  REF                                    192       0.26%
 7     integrate ortho    REF                                     94       0.13%
 -------------------------------------------------------------------------------

 MEMORY| Estimated peak process memory [MiB]                                 172

 -------------------------------------------------------------------------------
 -                                                                             -
 -                         MESSAGE PASSING PERFORMANCE                         -
 -                                                                             -
 -------------------------------------------------------------------------------

 ROUTINE             CALLS      AVE VOLUME [Bytes]
 MP_Group                4
 MP_Bcast              757                 485879.
 MP_Allreduce         2235                    156.
 MP_Sync                92
 MP_Alltoall           612                2998307.
 MP_ISendRecv         4416                  53808.
 MP_Wait              6660
 MP_comm_split          44
 MP_ISend             1980                 171665.
 MP_IRecv             1980                 171402.
 MP_Recv                 9                    896.
 -------------------------------------------------------------------------------


 -------------------------------------------------------------------------------
 -                                                                             -
 -                           R E F E R E N C E S                               -
 -                                                                             -
 -------------------------------------------------------------------------------
 
 CP2K version 8.2, the CP2K developers group (2021).
 CP2K is freely available from https://www.cp2k.org/ .

 Kuehne,Thomas D.; Iannuzzi,Marcella; Del Ben,Mauro;
 Rybkin,Vladimir V.; Seewald,Patrick; Stein,Frederick; Laino,Teodoro;
 Khaliullin,Rustam Z.; Schuett,Ole; Schiffmann,Florian; Golze,Dorothea;
 Wilhelm,Jan; Chulkov,Sergey; Bani-Hashemian,Mohammad Hossein;
 Weber,Valery; Borstnik,Urban; Taillefumier,Mathieu;
 Jakobovits,Alice Shoshana; Lazzaro,Alfio; Pabst,Hans; Mueller,Tiziano;
 Schade,Robert; Guidon,Manuel; Andermatt,Samuel; Holmberg,Nico;
 Schenter,Gregory K.; Hehn,Anna; Bussy,Augustin; Belleflamme,Fabian;
 Tabacchi,Gloria; Gloess,Andreas; Lass,Michael; Bethune,Iain;
 Mundy,Christopher J.; Plessl,Christian; Watkins,Matt;
 VandeVondele,Joost; Krack,Matthias; Hutter,Juerg. 
 The Journal of Chemical Physics, 152 (19), (2020). 
 CP2K: An electronic structure and molecular dynamics software package -
 Quickstep: Efficient and accurate electronic structure calculations.
 https://doi.org/10.1063/5.0007045

 Schuett, Ole; Messmer, Peter; Hutter, Juerg; VandeVondele, Joost. 
 Electronic Structure Calculations on Graphics Processing Units, John
 Wiley & Sons, Ltd, 173-190 (2016). 
 GPU-Accelerated Sparse Matrix-Matrix Multiplication for
 Linear Scaling Density Functional Theory.
 https://doi.org/10.1002/9781118670712.ch8

 Heinecke, A; Henry, G; Hutchinson, M; Pabst, H. 
 Proceedings of Intl. Supercomputing Conference, 981-991 (2016). 
 LIBXSMM: Accelerating Small Matrix Multiplications
 by Runtime Code Generation.
 https://doi.org/10.1109/SC.2016.83

 Borstnik, U; VandeVondele, J; Weber, V; Hutter, J. 
 PARALLEL COMPUTING, 40 (5-6), 47-58 (2014). 
 Sparse matrix multiplication: The distributed block-compressed sparse
 row library.
 https://doi.org/10.1016/j.parco.2014.03.012

 Hutter, J; Iannuzzi, M; Schiffmann, F; VandeVondele, J. 
 WIREs Comput Mol Sci., 4 (1), 15-25 (2014). 
 CP2K: atomistic simulations of condensed matter systems.
 https://doi.org/10.1002/wcms.1159

 Marek, A; Blum, V; Johanni, R; Havu, V; Lang, B; Auckenthaler, T;
 Heinecke, A; Bungartz, H; Lederer, H. 
 Journal of Physics: Condensed Matter, 26 (21), (2014). 
 The ELPA library: scalable parallel eigenvalue solutions for
 electronic structure
 theory and computational science.
 https://doi.org/10.1088/0953-8984/26/21/213201

 VandeVondele, J; Hutter, J. 
 JOURNAL OF CHEMICAL PHYSICS, 127 (11), 114105 (2007). 
 Gaussian basis sets for accurate calculations on molecular systems in
 gas and condensed phases.
 https://doi.org/10.1063/1.2770708

 Krack, M. 
 THEORETICAL CHEMISTRY ACCOUNTS, 114 (1-3), 145-152 (2005). 
 Pseudopotentials for H to Kr optimized for gradient-corrected
 exchange-correlation functionals.
 https://doi.org/10.1007/s00214-005-0655-y

 VandeVondele, J; Krack, M; Mohamed, F; Parrinello, M; Chassaing, T;
 Hutter, J. COMPUTER PHYSICS COMMUNICATIONS, 167 (2), 103-128 (2005). 
 QUICKSTEP: Fast and accurate density functional calculations using a
 mixed Gaussian and plane waves approach.
 https://doi.org/10.1016/j.cpc.2004.12.014

 Frigo, M; Johnson, SG. 
 PROCEEDINGS OF THE IEEE, 93 (2), 216-231 (2005). 
 The design and implementation of FFTW3.
 https://doi.org/10.1109/JPROC.2004.840301

 VandeVondele, J; Hutter, J. 
 JOURNAL OF CHEMICAL PHYSICS, 118 (10), 4365-4369 (2003). 
 An efficient orbital transformation method for electronic structure
 calculations.
 https://doi.org/10.1063/1.1543154

 Hartwigsen, C; Goedecker, S; Hutter, J. 
 PHYSICAL REVIEW B, 58 (7), 3641-3662 (1998). 
 Relativistic separable dual-space Gaussian pseudopotentials from H to Rn.
 https://doi.org/10.1103/PhysRevB.58.3641

 Lippert, G; Hutter, J; Parrinello, M. 
 MOLECULAR PHYSICS, 92 (3), 477-487 (1997). 
 A hybrid Gaussian and plane wave density functional scheme.
 https://doi.org/10.1080/002689797170220

 Perdew, JP; Burke, K; Ernzerhof, M. 
 PHYSICAL REVIEW LETTERS, 77 (18), 3865-3868 (1996). 
 Generalized gradient approximation made simple.
 https://doi.org/10.1103/PhysRevLett.77.3865

 Goedecker, S; Teter, M; Hutter, J. 
 PHYSICAL REVIEW B, 54 (3), 1703-1710 (1996). 
 Separable dual-space Gaussian pseudopotentials.
 https://doi.org/10.1103/PhysRevB.54.1703


 -------------------------------------------------------------------------------
 -                                                                             -
 -                                T I M I N G                                  -
 -                                                                             -
 -------------------------------------------------------------------------------
 SUBROUTINE                       CALLS  ASD         SELF TIME        TOTAL TIME
                                MAXIMUM       AVERAGE  MAXIMUM  AVERAGE  MAXIMUM
 CP2K                                 1  1.0    0.006    0.017    6.707    6.708
 qs_forces                            1  2.0    0.000    0.000    6.586    6.586
 qs_energies                          1  3.0    0.000    0.000    6.425    6.425
 scf_env_do_scf                       1  4.0    0.000    0.000    6.321    6.321
 scf_env_do_scf_inner_loop           41  5.0    0.001    0.003    6.158    6.158
 rebuild_ks_matrix                   42  6.9    0.000    0.000    4.228    4.230
 qs_ks_build_kohn_sham_matrix        42  7.9    0.004    0.004    4.228    4.230
 qs_ks_update_qs_env                 42  6.0    0.000    0.000    4.077    4.078
 qs_vxc_create                       42  8.9    0.000    0.000    3.230    3.234
 pw_transfer                        619 10.4    0.026    0.029    2.956    3.144
 fft_wrap_pw1pw2                    535 11.5    0.004    0.005    2.909    3.098
 fft_wrap_pw1pw2_200                343 12.7    0.168    0.180    2.776    2.966
 fft3d_ps                           535 13.5    1.369    1.563    2.355    2.543
 xc_rho_set_and_dset_create          42 10.9    0.015    0.016    2.156    2.464
 xc_vxc_pw_create                    22  9.9    0.037    0.042    2.046    2.051
 qs_rho_update_rho                   42  6.0    0.000    0.000    1.624    1.625
 calculate_rho_elec                  42  7.0    0.023    0.026    1.624    1.625
 density_rs2pw                       42  8.0    0.001    0.002    1.363    1.421
 xc_functional_eval                  42 11.9    0.000    0.000    1.027    1.324
 pbe_lda_eval                        42 12.9    1.027    1.323    1.027    1.323
 xc_exc_calc                         20 10.0    0.008    0.010    1.183    1.183
 mp_alltoall_z22v                   535 15.5    0.780    1.002    0.780    1.002
 rs_pw_transfer                     258 10.0    0.003    0.003    0.915    0.958
 yz_to_x                            257 13.7    0.061    0.072    0.480    0.692
 sum_up_and_integrate                22  8.9    0.003    0.004    0.665    0.665
 integrate_v_rspace                  22  9.9    0.000    0.002    0.662    0.662
 qs_scf_new_mos                      41  6.0    0.000    0.000    0.630    0.630
 qs_scf_loop_do_ot                   41  7.0    0.000    0.000    0.629    0.630
 ot_scf_mini                         41  8.0    0.000    0.001    0.594    0.595
 dbcsr_multiply_generic             633 10.9    0.015    0.017    0.516    0.522
 x_to_yz                            278 15.1    0.138    0.158    0.499    0.522
 potential_pw2rs                     22 10.9    0.001    0.001    0.497    0.497
 rs_pw_transfer_RS2PW_200            43 10.0    0.179    0.192    0.443    0.487
 mp_sum_d                          1155  8.0    0.239    0.418    0.239    0.418
 grid_collocate_task_list            42  8.0    0.200    0.402    0.200    0.402
 mp_waitany                        1980 11.9    0.299    0.352    0.299    0.352
 ot_mini                             41  9.0    0.000    0.000    0.266    0.267
 qs_ot_get_p                         42  9.0    0.000    0.000    0.232    0.235
 mp_waitall_1                     40128 14.7    0.202    0.232    0.202    0.232
 qs_ot_get_derivative                21 10.0    0.000    0.000    0.223    0.224
 multiply_cannon                    633 11.9    0.030    0.033    0.192    0.204
 pw_scatter_p                       278 14.1    0.197    0.201    0.197    0.201
 make_m2s                          1266 11.9    0.012    0.014    0.193    0.200
 rs_pw_transfer_PW2RS_200            23 12.7    0.103    0.110    0.184    0.191
 pw_gather_p                        257 12.7    0.175    0.184    0.175    0.184
 qs_ot_get_derivative_diag           20 11.0    0.000    0.000    0.167    0.168
 mp_alltoall_d11v                   650 13.0    0.142    0.165    0.142    0.165
 qs_ot_p2m_diag                      41 10.0    0.001    0.001    0.159    0.162
 init_scf_loop                        1  5.0    0.000    0.000    0.162    0.162
 grid_integrate_task_list            22 10.9    0.039    0.160    0.039    0.160
 qs_ks_update_qs_env_forces           1  3.0    0.000    0.000    0.153    0.154
 rs_gather_matrices                  22 10.9    0.000    0.000    0.126    0.148
 make_images                       1266 12.9    0.020    0.023    0.137    0.141
 -------------------------------------------------------------------------------

 The number of warnings for this run is : 2
 
 -------------------------------------------------------------------------------
  **** **** ******  **  PROGRAM ENDED AT                 2021-10-27 15:34:29.041
 ***** ** ***  *** **   PROGRAM RAN ON                                    node10
 **    ****   ******    PROGRAM RAN BY                                   lujunbo
 ***** **    ** ** **   PROGRAM PROCESS ID                                341286
  **** **  *******  **  PROGRAM STOPPED IN /home/lujunbo/WORK/deepmd/c2h6/mtd/tr
                                           ain_4_sys/cp2k_md/sys_4/data/task_251
                                           2
