 DBCSR| CPU Multiplication driver                                           XSMM
 DBCSR| Multrec recursion limit                                              512
 DBCSR| Multiplication stack size                                           1000
 DBCSR| Maximum elements for images                                    UNLIMITED
 DBCSR| Multiplicative factor virtual images                                   1
 DBCSR| Use multiplication densification                                       T
 DBCSR| Multiplication size stacks                                             3
 DBCSR| Use memory pool for CPU allocation                                     F
 DBCSR| Number of 3D layers                                               SINGLE
 DBCSR| Use MPI memory allocation                                              F
 DBCSR| Use RMA algorithm                                                      F
 DBCSR| Use Communication thread                                               T
 DBCSR| Communication thread load                                             87
 DBCSR| MPI: My node id                                                        0
 DBCSR| MPI: Number of nodes                                                  24
 DBCSR| OMP: Current number of threads                                         1
 DBCSR| OMP: Max number of threads                                             1
 DBCSR| Split modifier for TAS multiplication algorithm                  1.0E+00


  **** **** ******  **  PROGRAM STARTED AT               2021-10-27 16:06:52.480
 ***** ** ***  *** **   PROGRAM STARTED ON                                 node2
 **    ****   ******    PROGRAM STARTED BY                               lujunbo
 ***** **    ** ** **   PROGRAM PROCESS ID                                709493
  **** **  *******  **  PROGRAM STARTED IN /home/lujunbo/WORK/deepmd/c2h6/mtd/tr
                                           ain_4_sys/cp2k_md/sys_4/data/task_274
                                           8

 CP2K| version string:                                          CP2K version 8.2
 CP2K| source code revision number:                                  git:310b7ab
 CP2K| cp2kflags: omp libint fftw3 libxc elpa parallel mpi3 scalapack xsmm plume
 CP2K|            d2 spglib mkl libvori libbqb
 CP2K| is freely available from                            https://www.cp2k.org/
 CP2K| Program compiled at                          Tue Jun  1 15:18:23 CST 2021
 CP2K| Program compiled on                                                   mgr
 CP2K| Program compiled for                                                local
 CP2K| Data directory path                       /home/lujunbo/bin/cp2k-8.2/data
 CP2K| Input file name                                                 input.inp

 GLOBAL| Force Environment number                                              1
 GLOBAL| Basis set file name            /home/lujunbo/bin/cp2k-8.2/data/BASIS_MO
 GLOBAL| Potential file name            /home/lujunbo/bin/cp2k-8.2/data/POTENTIA
 GLOBAL| MM Potential file name                                     MM_POTENTIAL
 GLOBAL| Coordinate file name                                      __STD_INPUT__
 GLOBAL| Method name                                                        CP2K
 GLOBAL| Project name                                                       cp2k
 GLOBAL| Run type                                                   ENERGY_FORCE
 GLOBAL| FFT library                                                       FFTW3
 GLOBAL| Diagonalization library                                            ELPA
 GLOBAL| Minimum number of eigenvectors for ELPA usage                        16
 GLOBAL| Orthonormality check for eigenvectors                          DISABLED
 GLOBAL| Matrix multiplication library                                    SCALAP
 GLOBAL| All-to-all communication in single precision                          F
 GLOBAL| FFTs using library dependent lengths                                  F
 GLOBAL| Grid backend                                                       AUTO
 GLOBAL| Global print level                                                  LOW
 GLOBAL| MPI I/O enabled                                                       T
 GLOBAL| Total number of message passing processes                            24
 GLOBAL| Number of threads for this process                                    1
 GLOBAL| This output is from process                                           0
 GLOBAL| CPU model name             Intel(R) Xeon(R) Platinum 9242 CPU @ 2.30GHz
 GLOBAL| CPUID                                                              1003

 MEMORY| system memory details [Kb]
 MEMORY|                        rank 0           min           max       average
 MEMORY| MemTotal            394609400     394609400     394609400     394609400
 MEMORY| MemFree             121290668     121290668     121290668     121290668
 MEMORY| Buffers                164324        164324        164324        164324
 MEMORY| Cached              242451660     242451660     242451660     242451660
 MEMORY| Slab                  3163236       3163236       3163236       3163236
 MEMORY| SReclaimable          2426980       2426980       2426980       2426980
 MEMORY| MemLikelyFree       366333632     366333632     366333632     366333632


 GENERATE|  Preliminary Number of Bonds generated:                             0
 GENERATE|  Achieved consistency in connectivity generation.

 *******************************************************************************
 *******************************************************************************
 **                                                                           **
 **     #####                         ##              ##                      **
 **    ##   ##            ##          ##              ##                      **
 **   ##     ##                       ##            ######                    **
 **   ##     ##  ##   ##  ##   #####  ##  ##   ####   ##    #####    #####    **
 **   ##     ##  ##   ##  ##  ##      ## ##   ##      ##   ##   ##  ##   ##   **
 **   ##  ## ##  ##   ##  ##  ##      ####     ###    ##   ######   ######    **
 **    ##  ###   ##   ##  ##  ##      ## ##      ##   ##   ##       ##        **
 **     #######   #####   ##   #####  ##  ##  ####    ##    #####   ##        **
 **           ##                                                    ##        **
 **                                                                           **
 **                                                ... make the atoms dance   **
 **                                                                           **
 **            Copyright (C) by CP2K developers group (2000-2021)             **
 **                      J. Chem. Phys. 152, 194103 (2020)                    **
 **                                                                           **
 *******************************************************************************


 TOTAL NUMBERS AND MAXIMUM NUMBERS

  Total number of            - Atomic kinds:                                   2
                             - Atoms:                                          8
                             - Shell sets:                                     8
                             - Shells:                                        28
                             - Primitive Cartesian functions:                 40
                             - Cartesian basis functions:                     58
                             - Spherical basis functions:                     56

  Maximum angular momentum of- Orbital basis functions:                        2
                             - Local part of the GTH pseudopotential:          2
                             - Non-local part of the GTH pseudopotential:      0


 SCF PARAMETERS         Density guess:                                   RESTART
                        --------------------------------------------------------
                        max_scf:                                             100
                        max_scf_history:                                       0
                        max_diis:                                              4
                        --------------------------------------------------------
                        eps_scf:                                        1.00E-06
                        eps_scf_history:                                0.00E+00
                        eps_diis:                                       1.00E-01
                        eps_eigval:                                     1.00E-05
                        --------------------------------------------------------
                        level_shift [a.u.]:                                 0.00
                        --------------------------------------------------------
                        Outer loop SCF in use 
                        No variables optimised in outer loop
                        eps_scf                                         1.00E-06
                        max_scf                                                6
                        No outer loop optimization
                        step_size                                       5.00E-01

 Number of electrons:                                                         14
 Number of occupied orbitals:                                                  7
 Number of molecular orbitals:                                                 7

 Number of orbital functions:                                                 56
 Number of independent orbital functions:                                     56

 Extrapolation method: initial_guess


 SCF WAVEFUNCTION OPTIMIZATION

  ----------------------------------- OT ---------------------------------------
  Minimizer      : CG                  : conjugate gradient
  Preconditioner : FULL_ALL            : diagonalization, state selective
  Precond_solver : DEFAULT
  Line search    : 2PNT                : 2 energies, one gradient
  stepsize       :    0.15000000                  energy_gap     :    0.08000000
  eps_taylor     :   0.10000E-15                  max_taylor     :             4
  ----------------------------------- OT ---------------------------------------

  Step     Update method      Time    Convergence         Total energy    Change
  ------------------------------------------------------------------------------
     1 OT CG       0.15E+00    0.2     0.00022930       -14.9517786542 -1.50E+01
     2 OT LS       0.22E+00    0.1                      -14.9517806821
     3 OT CG       0.22E+00    0.2     0.00006909       -14.9517809004 -2.25E-06
     4 OT LS       0.13E+00    0.1                      -14.9517809587
     5 OT CG       0.13E+00    0.2     0.00001515       -14.9517810194 -1.19E-07
     6 OT LS       0.15E+00    0.1                      -14.9517810260
     7 OT CG       0.15E+00    0.2     0.00000201       -14.9517810262 -6.80E-09
     8 OT LS       0.16E+00    0.1                      -14.9517810263
     9 OT CG       0.16E+00    0.2     0.00000044       -14.9517810263 -1.28E-10

  *** SCF run converged in     9 steps ***


  Electronic density on regular grids:        -14.0000000000        0.0000000000
  Core density on regular grids:               13.9999999990       -0.0000000010
  Total charge density on r-space grids:       -0.0000000010
  Total charge density g-space grids:          -0.0000000010

  Overlap energy of the core charge distribution:               0.00000140939983
  Self energy of the core charge distribution:                -35.13285960674677
  Core Hamiltonian energy:                                     11.38426451755763
  Hartree energy:                                              14.44787415880944
  Exchange-correlation energy:                                 -5.65106150535386

  Total energy:                                               -14.95178102633373

  outer SCF iter =    1 RMS gradient =   0.44E-06 energy =        -14.9517810263
  outer SCF loop converged in   1 iterations or    9 steps


 ENERGY| Total FORCE_EVAL ( QS ) energy [a.u.]:              -14.951781026339535

 -------------------------------------------------------------------------------
 -                                                                             -
 -                                DBCSR STATISTICS                             -
 -                                                                             -
 -------------------------------------------------------------------------------
 COUNTER                                    TOTAL       BLAS       SMM       ACC
 flops     7 x     7 x     7                20580       0.0%    100.0%      0.0%
 flops     5 x    13 x     7                60060       0.0%    100.0%      0.0%
 flops    13 x     5 x     7                60060       0.0%    100.0%      0.0%
 flops     7 x     7 x    13                63700       0.0%    100.0%      0.0%
 flops     7 x     7 x     5                73500       0.0%    100.0%      0.0%
 flops    13 x    13 x     7                78078       0.0%    100.0%      0.0%
 flops     5 x     5 x     7                80850       0.0%    100.0%      0.0%
 flops    26 x     7 x     7                86632       0.0%    100.0%      0.0%
 flops    10 x     7 x     7                99960       0.0%    100.0%      0.0%
 flops    26 x     7 x    13               113568       0.0%    100.0%      0.0%
 flops    26 x     7 x     5               131040       0.0%    100.0%      0.0%
 flops    10 x     7 x    13               131040       0.0%    100.0%      0.0%
 flops    10 x     7 x     5               151200       0.0%    100.0%      0.0%
 flops    13 x     7 x    13               198744       0.0%    100.0%      0.0%
 flops    13 x     7 x     5               229320       0.0%    100.0%      0.0%
 flops     5 x     7 x    13               229320       0.0%    100.0%      0.0%
 flops     5 x     7 x     5               264600       0.0%    100.0%      0.0%
 flops inhomo. stacks                           0       0.0%      0.0%      0.0%
 flops total                         2.072252E+06       0.0%    100.0%      0.0%
 flops max/rank                    995.162000E+03       0.0%    100.0%      0.0%
 matmuls inhomo. stacks                         0       0.0%      0.0%      0.0%
 matmuls total                               2490       0.0%    100.0%      0.0%
 number of processed stacks                  1686       0.0%    100.0%      0.0%
 average stack size                                     0.0       1.5       0.0
 marketing flops                     2.281636E+06
 -------------------------------------------------------------------------------
 # multiplications                            134
 max memory usage/rank             176.234496E+06
 # max total images/rank                        3
 # max 3D layers                                1
 # MPI messages exchanged                   61104
 MPI messages size (bytes):
  total size                         6.020336E+06
  min size                           0.000000E+00
  max size                           2.704000E+03
  average size                      98.526054E+00
 MPI breakdown and total messages size (bytes):
             size <=      128               51992                        0
       128 < size <=     8192                9112                  6020336
      8192 < size <=    32768                   0                        0
     32768 < size <=   131072                   0                        0
    131072 < size <=  4194304                   0                        0
   4194304 < size <= 16777216                   0                        0
  16777216 < size                               0                        0
 -------------------------------------------------------------------------------

 *** WARNING in dbcsr_mm.F:294 :: Using a non-square number of MPI ranks ***
 *** might lead to poor performance. Used ranks: 24 Suggested: 25 49     ***

 -------------------------------------------------------------------------------
 -                                                                             -
 -                      DBCSR MESSAGE PASSING PERFORMANCE                      -
 -                                                                             -
 -------------------------------------------------------------------------------
 ROUTINE             CALLS      AVE VOLUME [Bytes]
 MP_Bcast               18                     12.
 MP_Allreduce          720                      9.
 MP_Alltoall           590                   1541.
 MP_ISend             5624                    185.
 MP_IRecv             5624                    123.
 -------------------------------------------------------------------------------

 -------------------------------------------------------------------------------
 -                                                                             -
 -                                GRID STATISTICS                              -
 -                                                                             -
 -------------------------------------------------------------------------------
 LP    KERNEL             BACKEND                              COUNT     PERCENT
 2     collocate ortho    REF                                   6800      36.05%
 3     collocate ortho    REF                                   3810      20.20%
 2     integrate ortho    REF                                   3400      18.02%
 3     integrate ortho    REF                                   1905      10.10%
 4     collocate ortho    REF                                    940       4.98%
 5     integrate ortho    REF                                    680       3.60%
 4     integrate ortho    REF                                    470       2.49%
 6     integrate ortho    REF                                    381       2.02%
 0     collocate general  REF                                    192       1.02%
 3     integrate general  REF                                    192       1.02%
 7     integrate ortho    REF                                     94       0.50%
 -------------------------------------------------------------------------------

 MEMORY| Estimated peak process memory [MiB]                                 169

 -------------------------------------------------------------------------------
 -                                                                             -
 -                         MESSAGE PASSING PERFORMANCE                         -
 -                                                                             -
 -------------------------------------------------------------------------------

 ROUTINE             CALLS      AVE VOLUME [Bytes]
 MP_Group                4
 MP_Bcast              119                3088438.
 MP_Allreduce          500                    589.
 MP_Sync                10
 MP_Alltoall           164                2836426.
 MP_ISendRecv         1104                  53808.
 MP_Wait              1716
 MP_comm_split           3
 MP_ISend              540                 171630.
 MP_IRecv              540                 171437.
 MP_Recv                 3                    896.
 -------------------------------------------------------------------------------


 -------------------------------------------------------------------------------
 -                                                                             -
 -                           R E F E R E N C E S                               -
 -                                                                             -
 -------------------------------------------------------------------------------
 
 CP2K version 8.2, the CP2K developers group (2021).
 CP2K is freely available from https://www.cp2k.org/ .

 Kuehne,Thomas D.; Iannuzzi,Marcella; Del Ben,Mauro;
 Rybkin,Vladimir V.; Seewald,Patrick; Stein,Frederick; Laino,Teodoro;
 Khaliullin,Rustam Z.; Schuett,Ole; Schiffmann,Florian; Golze,Dorothea;
 Wilhelm,Jan; Chulkov,Sergey; Bani-Hashemian,Mohammad Hossein;
 Weber,Valery; Borstnik,Urban; Taillefumier,Mathieu;
 Jakobovits,Alice Shoshana; Lazzaro,Alfio; Pabst,Hans; Mueller,Tiziano;
 Schade,Robert; Guidon,Manuel; Andermatt,Samuel; Holmberg,Nico;
 Schenter,Gregory K.; Hehn,Anna; Bussy,Augustin; Belleflamme,Fabian;
 Tabacchi,Gloria; Gloess,Andreas; Lass,Michael; Bethune,Iain;
 Mundy,Christopher J.; Plessl,Christian; Watkins,Matt;
 VandeVondele,Joost; Krack,Matthias; Hutter,Juerg. 
 The Journal of Chemical Physics, 152 (19), (2020). 
 CP2K: An electronic structure and molecular dynamics software package -
 Quickstep: Efficient and accurate electronic structure calculations.
 https://doi.org/10.1063/5.0007045

 Schuett, Ole; Messmer, Peter; Hutter, Juerg; VandeVondele, Joost. 
 Electronic Structure Calculations on Graphics Processing Units, John
 Wiley & Sons, Ltd, 173-190 (2016). 
 GPU-Accelerated Sparse Matrix-Matrix Multiplication for
 Linear Scaling Density Functional Theory.
 https://doi.org/10.1002/9781118670712.ch8

 Heinecke, A; Henry, G; Hutchinson, M; Pabst, H. 
 Proceedings of Intl. Supercomputing Conference, 981-991 (2016). 
 LIBXSMM: Accelerating Small Matrix Multiplications
 by Runtime Code Generation.
 https://doi.org/10.1109/SC.2016.83

 Borstnik, U; VandeVondele, J; Weber, V; Hutter, J. 
 PARALLEL COMPUTING, 40 (5-6), 47-58 (2014). 
 Sparse matrix multiplication: The distributed block-compressed sparse
 row library.
 https://doi.org/10.1016/j.parco.2014.03.012

 Hutter, J; Iannuzzi, M; Schiffmann, F; VandeVondele, J. 
 WIREs Comput Mol Sci., 4 (1), 15-25 (2014). 
 CP2K: atomistic simulations of condensed matter systems.
 https://doi.org/10.1002/wcms.1159

 Marek, A; Blum, V; Johanni, R; Havu, V; Lang, B; Auckenthaler, T;
 Heinecke, A; Bungartz, H; Lederer, H. 
 Journal of Physics: Condensed Matter, 26 (21), (2014). 
 The ELPA library: scalable parallel eigenvalue solutions for
 electronic structure
 theory and computational science.
 https://doi.org/10.1088/0953-8984/26/21/213201

 VandeVondele, J; Hutter, J. 
 JOURNAL OF CHEMICAL PHYSICS, 127 (11), 114105 (2007). 
 Gaussian basis sets for accurate calculations on molecular systems in
 gas and condensed phases.
 https://doi.org/10.1063/1.2770708

 Krack, M. 
 THEORETICAL CHEMISTRY ACCOUNTS, 114 (1-3), 145-152 (2005). 
 Pseudopotentials for H to Kr optimized for gradient-corrected
 exchange-correlation functionals.
 https://doi.org/10.1007/s00214-005-0655-y

 VandeVondele, J; Krack, M; Mohamed, F; Parrinello, M; Chassaing, T;
 Hutter, J. COMPUTER PHYSICS COMMUNICATIONS, 167 (2), 103-128 (2005). 
 QUICKSTEP: Fast and accurate density functional calculations using a
 mixed Gaussian and plane waves approach.
 https://doi.org/10.1016/j.cpc.2004.12.014

 Frigo, M; Johnson, SG. 
 PROCEEDINGS OF THE IEEE, 93 (2), 216-231 (2005). 
 The design and implementation of FFTW3.
 https://doi.org/10.1109/JPROC.2004.840301

 VandeVondele, J; Hutter, J. 
 JOURNAL OF CHEMICAL PHYSICS, 118 (10), 4365-4369 (2003). 
 An efficient orbital transformation method for electronic structure
 calculations.
 https://doi.org/10.1063/1.1543154

 Hartwigsen, C; Goedecker, S; Hutter, J. 
 PHYSICAL REVIEW B, 58 (7), 3641-3662 (1998). 
 Relativistic separable dual-space Gaussian pseudopotentials from H to Rn.
 https://doi.org/10.1103/PhysRevB.58.3641

 Lippert, G; Hutter, J; Parrinello, M. 
 MOLECULAR PHYSICS, 92 (3), 477-487 (1997). 
 A hybrid Gaussian and plane wave density functional scheme.
 https://doi.org/10.1080/002689797170220

 Perdew, JP; Burke, K; Ernzerhof, M. 
 PHYSICAL REVIEW LETTERS, 77 (18), 3865-3868 (1996). 
 Generalized gradient approximation made simple.
 https://doi.org/10.1103/PhysRevLett.77.3865

 Goedecker, S; Teter, M; Hutter, J. 
 PHYSICAL REVIEW B, 54 (3), 1703-1710 (1996). 
 Separable dual-space Gaussian pseudopotentials.
 https://doi.org/10.1103/PhysRevB.54.1703


 -------------------------------------------------------------------------------
 -                                                                             -
 -                                T I M I N G                                  -
 -                                                                             -
 -------------------------------------------------------------------------------
 SUBROUTINE                       CALLS  ASD         SELF TIME        TOTAL TIME
                                MAXIMUM       AVERAGE  MAXIMUM  AVERAGE  MAXIMUM
 CP2K                                 1  1.0    0.007    0.012    2.003    2.005
 qs_forces                            1  2.0    0.000    0.000    1.875    1.875
 qs_energies                          1  3.0    0.000    0.000    1.687    1.687
 scf_env_do_scf                       1  4.0    0.000    0.000    1.586    1.586
 scf_env_do_scf_inner_loop            9  5.0    0.000    0.001    1.408    1.408
 rebuild_ks_matrix                   10  6.7    0.000    0.000    1.243    1.244
 qs_ks_build_kohn_sham_matrix        10  7.7    0.001    0.001    1.243    1.244
 qs_ks_update_qs_env                 10  6.0    0.000    0.000    1.063    1.063
 pw_transfer                        155 10.2    0.007    0.010    0.880    0.935
 fft_wrap_pw1pw2                    135 11.3    0.001    0.001    0.868    0.923
 qs_vxc_create                       10  8.7    0.000    0.000    0.917    0.919
 fft_wrap_pw1pw2_200                 87 12.5    0.050    0.055    0.829    0.883
 fft3d_ps                           135 13.3    0.389    0.428    0.709    0.765
 xc_vxc_pw_create                     6  9.5    0.013    0.015    0.655    0.656
 xc_rho_set_and_dset_create          10 10.7    0.004    0.005    0.565    0.647
 qs_rho_update_rho                   10  6.0    0.000    0.000    0.428    0.428
 calculate_rho_elec                  10  7.0    0.006    0.006    0.428    0.428
 density_rs2pw                       10  8.0    0.000    0.000    0.357    0.372
 xc_functional_eval                  10 11.7    0.000    0.000    0.265    0.345
 pbe_lda_eval                        10 12.7    0.265    0.345    0.265    0.345
 mp_alltoall_z22v                   135 15.3    0.260    0.339    0.260    0.339
 rs_pw_transfer                      66  9.8    0.001    0.001    0.274    0.285
 xc_exc_calc                          4 10.0    0.002    0.002    0.262    0.262
 yz_to_x                             65 13.6    0.019    0.023    0.162    0.232
 sum_up_and_integrate                 6  8.5    0.001    0.001    0.220    0.220
 integrate_v_rspace                   6  9.5    0.000    0.000    0.219    0.219
 qs_ks_update_qs_env_forces           1  3.0    0.000    0.000    0.181    0.181
 x_to_yz                             70 14.9    0.038    0.046    0.156    0.180
 init_scf_loop                        1  5.0    0.000    0.000    0.176    0.177
 potential_pw2rs                      6 10.5    0.000    0.000    0.163    0.163
 rs_pw_transfer_RS2PW_200            11  9.8    0.058    0.061    0.128    0.139
 dbcsr_multiply_generic             134 10.6    0.004    0.004    0.117    0.118
 qs_scf_new_mos                       9  6.0    0.000    0.000    0.111    0.111
 qs_scf_loop_do_ot                    9  7.0    0.000    0.000    0.111    0.111
 grid_collocate_task_list            10  8.0    0.057    0.110    0.057    0.110
 mp_sum_d                           528  3.4    0.062    0.104    0.062    0.104
 ot_scf_mini                          9  8.0    0.000    0.000    0.103    0.103
 mp_waitany                         540 11.6    0.083    0.094    0.083    0.094
 rs_pw_transfer_PW2RS_200             7 11.9    0.038    0.039    0.066    0.069
 create_qs_kind_set                   1  2.0    0.000    0.000    0.066    0.067
 read_qs_kind                         2  3.0    0.018    0.020    0.066    0.067
 init_scf_run                         1  4.0    0.000    0.000    0.062    0.062
 scf_env_initial_rho_setup            1  5.0    0.000    0.000    0.062    0.062
 mp_waitall_1                      8680 14.4    0.055    0.062    0.055    0.062
 ot_mini                              9  9.0    0.000    0.000    0.060    0.061
 pw_gather_p                         65 12.6    0.053    0.056    0.053    0.056
 mp_alltoall_d11v                   167 11.4    0.048    0.056    0.048    0.056
 grid_integrate_task_list             6 10.5    0.013    0.055    0.013    0.055
 pw_scatter_p                        70 13.9    0.053    0.055    0.053    0.055
 rs_gather_matrices                   6 10.5    0.000    0.000    0.043    0.051
 parser_read_line                  5424  4.0    0.002    0.002    0.048    0.050
 qs_ot_get_derivative                 5 10.0    0.000    0.000    0.049    0.050
 parser_read_line_low                 8  5.0    0.005    0.013    0.047    0.049
 multiply_cannon                    134 11.6    0.007    0.007    0.044    0.047
 broadcast_input_information          8  6.0    0.000    0.000    0.042    0.045
 make_m2s                           268 11.6    0.003    0.003    0.044    0.045
 -------------------------------------------------------------------------------

 The number of warnings for this run is : 1
 
 -------------------------------------------------------------------------------
  **** **** ******  **  PROGRAM ENDED AT                 2021-10-27 16:06:54.936
 ***** ** ***  *** **   PROGRAM RAN ON                                     node2
 **    ****   ******    PROGRAM RAN BY                                   lujunbo
 ***** **    ** ** **   PROGRAM PROCESS ID                                709493
  **** **  *******  **  PROGRAM STOPPED IN /home/lujunbo/WORK/deepmd/c2h6/mtd/tr
                                           ain_4_sys/cp2k_md/sys_4/data/task_274
                                           8
