 DBCSR| CPU Multiplication driver                                           XSMM
 DBCSR| Multrec recursion limit                                              512
 DBCSR| Multiplication stack size                                           1000
 DBCSR| Maximum elements for images                                    UNLIMITED
 DBCSR| Multiplicative factor virtual images                                   1
 DBCSR| Use multiplication densification                                       T
 DBCSR| Multiplication size stacks                                             3
 DBCSR| Use memory pool for CPU allocation                                     F
 DBCSR| Number of 3D layers                                               SINGLE
 DBCSR| Use MPI memory allocation                                              F
 DBCSR| Use RMA algorithm                                                      F
 DBCSR| Use Communication thread                                               T
 DBCSR| Communication thread load                                             87
 DBCSR| MPI: My node id                                                        0
 DBCSR| MPI: Number of nodes                                                  24
 DBCSR| OMP: Current number of threads                                         1
 DBCSR| OMP: Max number of threads                                             1
 DBCSR| Split modifier for TAS multiplication algorithm                  1.0E+00


  **** **** ******  **  PROGRAM STARTED AT               2021-10-27 16:48:49.262
 ***** ** ***  *** **   PROGRAM STARTED ON                                 node2
 **    ****   ******    PROGRAM STARTED BY                               lujunbo
 ***** **    ** ** **   PROGRAM PROCESS ID                                725707
  **** **  *******  **  PROGRAM STARTED IN /home/lujunbo/WORK/deepmd/c2h6/mtd/tr
                                           ain_4_sys/cp2k_md/sys_4/data/task_295
                                           5

 CP2K| version string:                                          CP2K version 8.2
 CP2K| source code revision number:                                  git:310b7ab
 CP2K| cp2kflags: omp libint fftw3 libxc elpa parallel mpi3 scalapack xsmm plume
 CP2K|            d2 spglib mkl libvori libbqb
 CP2K| is freely available from                            https://www.cp2k.org/
 CP2K| Program compiled at                          Tue Jun  1 15:18:23 CST 2021
 CP2K| Program compiled on                                                   mgr
 CP2K| Program compiled for                                                local
 CP2K| Data directory path                       /home/lujunbo/bin/cp2k-8.2/data
 CP2K| Input file name                                                 input.inp

 GLOBAL| Force Environment number                                              1
 GLOBAL| Basis set file name            /home/lujunbo/bin/cp2k-8.2/data/BASIS_MO
 GLOBAL| Potential file name            /home/lujunbo/bin/cp2k-8.2/data/POTENTIA
 GLOBAL| MM Potential file name                                     MM_POTENTIAL
 GLOBAL| Coordinate file name                                      __STD_INPUT__
 GLOBAL| Method name                                                        CP2K
 GLOBAL| Project name                                                       cp2k
 GLOBAL| Run type                                                   ENERGY_FORCE
 GLOBAL| FFT library                                                       FFTW3
 GLOBAL| Diagonalization library                                            ELPA
 GLOBAL| Minimum number of eigenvectors for ELPA usage                        16
 GLOBAL| Orthonormality check for eigenvectors                          DISABLED
 GLOBAL| Matrix multiplication library                                    SCALAP
 GLOBAL| All-to-all communication in single precision                          F
 GLOBAL| FFTs using library dependent lengths                                  F
 GLOBAL| Grid backend                                                       AUTO
 GLOBAL| Global print level                                                  LOW
 GLOBAL| MPI I/O enabled                                                       T
 GLOBAL| Total number of message passing processes                            24
 GLOBAL| Number of threads for this process                                    1
 GLOBAL| This output is from process                                           0
 GLOBAL| CPU model name             Intel(R) Xeon(R) Platinum 9242 CPU @ 2.30GHz
 GLOBAL| CPUID                                                              1003

 MEMORY| system memory details [Kb]
 MEMORY|                        rank 0           min           max       average
 MEMORY| MemTotal            394609400     394609400     394609400     394609400
 MEMORY| MemFree             119176360     119176284     119176360     119176356
 MEMORY| Buffers                164324        164324        164324        164324
 MEMORY| Cached              244040880     244040876     244040880     244040879
 MEMORY| Slab                  3151868       3151868       3151868       3151868
 MEMORY| SReclaimable          2423908       2423908       2423908       2423908
 MEMORY| MemLikelyFree       365805472     365805392     365805472     365805468


 GENERATE|  Preliminary Number of Bonds generated:                             0
 GENERATE|  Achieved consistency in connectivity generation.

 *******************************************************************************
 *******************************************************************************
 **                                                                           **
 **     #####                         ##              ##                      **
 **    ##   ##            ##          ##              ##                      **
 **   ##     ##                       ##            ######                    **
 **   ##     ##  ##   ##  ##   #####  ##  ##   ####   ##    #####    #####    **
 **   ##     ##  ##   ##  ##  ##      ## ##   ##      ##   ##   ##  ##   ##   **
 **   ##  ## ##  ##   ##  ##  ##      ####     ###    ##   ######   ######    **
 **    ##  ###   ##   ##  ##  ##      ## ##      ##   ##   ##       ##        **
 **     #######   #####   ##   #####  ##  ##  ####    ##    #####   ##        **
 **           ##                                                    ##        **
 **                                                                           **
 **                                                ... make the atoms dance   **
 **                                                                           **
 **            Copyright (C) by CP2K developers group (2000-2021)             **
 **                      J. Chem. Phys. 152, 194103 (2020)                    **
 **                                                                           **
 *******************************************************************************


 TOTAL NUMBERS AND MAXIMUM NUMBERS

  Total number of            - Atomic kinds:                                   2
                             - Atoms:                                          8
                             - Shell sets:                                     8
                             - Shells:                                        28
                             - Primitive Cartesian functions:                 40
                             - Cartesian basis functions:                     58
                             - Spherical basis functions:                     56

  Maximum angular momentum of- Orbital basis functions:                        2
                             - Local part of the GTH pseudopotential:          2
                             - Non-local part of the GTH pseudopotential:      0


 SCF PARAMETERS         Density guess:                                   RESTART
                        --------------------------------------------------------
                        max_scf:                                             100
                        max_scf_history:                                       0
                        max_diis:                                              4
                        --------------------------------------------------------
                        eps_scf:                                        1.00E-06
                        eps_scf_history:                                0.00E+00
                        eps_diis:                                       1.00E-01
                        eps_eigval:                                     1.00E-05
                        --------------------------------------------------------
                        level_shift [a.u.]:                                 0.00
                        --------------------------------------------------------
                        Outer loop SCF in use 
                        No variables optimised in outer loop
                        eps_scf                                         1.00E-06
                        max_scf                                                6
                        No outer loop optimization
                        step_size                                       5.00E-01

 Number of electrons:                                                         14
 Number of occupied orbitals:                                                  7
 Number of molecular orbitals:                                                 7

 Number of orbital functions:                                                 56
 Number of independent orbital functions:                                     56

 Extrapolation method: initial_guess

 *** WARNING in qs_initial_guess.F:309 :: User requested to restart the    ***
 *** wavefunction from the file named: cp2k-RESTART.wfn. This file does    ***
 *** not exist. Please check the existence of the file or change properly  ***
 *** the value of the keyword WFN_RESTART_FILE_NAME. Calculation continues ***
 *** using ATOMIC GUESS.                                                   ***



 SCF WAVEFUNCTION OPTIMIZATION

  ----------------------------------- OT ---------------------------------------
  Minimizer      : CG                  : conjugate gradient
  Preconditioner : FULL_ALL            : diagonalization, state selective
  Precond_solver : DEFAULT
  Line search    : 2PNT                : 2 energies, one gradient
  stepsize       :    0.15000000                  energy_gap     :    0.08000000
  eps_taylor     :   0.10000E-15                  max_taylor     :             4
  ----------------------------------- OT ---------------------------------------

  Step     Update method      Time    Convergence         Total energy    Change
  ------------------------------------------------------------------------------
     1 OT CG       0.15E+00    7.4     0.24131311       -13.7432486538 -1.37E+01
     2 OT LS       0.76E-01    3.8                      -13.7720873232
     3 OT CG       0.76E-01    6.4     0.09540638       -14.7424051350 -9.99E-01
     4 OT LS       0.91E-01    0.3                      -14.8824924120
     5 OT CG       0.91E-01    0.4     0.07385511       -14.8859930958 -1.44E-01
     6 OT LS       0.47E-01    0.2                      -14.8930652433
     7 OT CG       0.47E-01    0.3     0.02496157       -14.9357109255 -4.97E-02
     8 OT LS       0.10E+00    0.2                      -14.9444320509
     9 OT CG       0.10E+00    0.3     0.01193493       -14.9478381199 -1.21E-02
    10 OT LS       0.94E-01    0.2                      -14.9504362333
    11 OT CG       0.94E-01    0.3     0.00659431       -14.9504482620 -2.61E-03
    12 OT LS       0.55E-01    0.2                      -14.9506774565
    13 OT CG       0.55E-01    0.3     0.00281413       -14.9509168704 -4.69E-04
    14 OT LS       0.96E-01    0.2                      -14.9510389655
    15 OT CG       0.96E-01    0.4     0.00108936       -14.9510664617 -1.50E-04
    16 OT LS       0.92E-01    0.2                      -14.9510877173
    17 OT CG       0.92E-01    0.4     0.00064404       -14.9510877744 -2.13E-05
    18 OT LS       0.61E-01    0.2                      -14.9510914977
    19 OT CG       0.61E-01    0.4     0.00032061       -14.9510927421 -4.97E-06
    20 OT LS       0.10E+00    0.2                      -14.9510944494
    21 OT CG       0.10E+00    0.4     0.00011872       -14.9510947489 -2.01E-06
    22 OT LS       0.89E-01    0.2                      -14.9510949927
    23 OT CG       0.89E-01    0.3     0.00008003       -14.9510949959 -2.47E-07
    24 OT LS       0.68E-01    0.2                      -14.9510950725
    25 OT CG       0.68E-01    0.4     0.00003396       -14.9510950811 -8.52E-08
    26 OT LS       0.79E-01    0.2                      -14.9510950986
    27 OT CG       0.79E-01    0.4     0.00001715       -14.9510950990 -1.79E-08
    28 OT LS       0.77E-01    0.2                      -14.9510951034
    29 OT CG       0.77E-01    0.3     0.00000808       -14.9510951034 -4.42E-09
    30 OT LS       0.93E-01    0.2                      -14.9510951046
    31 OT CG       0.93E-01    0.4     0.00000452       -14.9510951046 -1.19E-09
    32 OT LS       0.66E-01    0.2                      -14.9510951048
    33 OT CG       0.66E-01    0.3     0.00000230       -14.9510951049 -2.64E-10
    34 OT LS       0.77E-01    0.2                      -14.9510951049
    35 OT CG       0.77E-01    0.4     0.00000091       -14.9510951049 -7.98E-11

  *** SCF run converged in    35 steps ***


  Electronic density on regular grids:        -14.0000000000        0.0000000000
  Core density on regular grids:               13.9999999989       -0.0000000011
  Total charge density on r-space grids:       -0.0000000010
  Total charge density g-space grids:          -0.0000000010

  Overlap energy of the core charge distribution:               0.00000163179063
  Self energy of the core charge distribution:                -35.13285960674677
  Core Hamiltonian energy:                                     11.41249038630300
  Hartree energy:                                              14.42925537794677
  Exchange-correlation energy:                                 -5.65998289423255

  Total energy:                                               -14.95109510493893

  outer SCF iter =    1 RMS gradient =   0.91E-06 energy =        -14.9510951049
  outer SCF loop converged in   1 iterations or   35 steps


 ENERGY| Total FORCE_EVAL ( QS ) energy [a.u.]:              -14.951095104953751

 -------------------------------------------------------------------------------
 -                                                                             -
 -                                DBCSR STATISTICS                             -
 -                                                                             -
 -------------------------------------------------------------------------------
 COUNTER                                    TOTAL       BLAS       SMM       ACC
 flops     7 x     7 x     7               130340       0.0%    100.0%      0.0%
 flops     5 x    13 x     7               202020       0.0%    100.0%      0.0%
 flops    13 x     5 x     7               202020       0.0%    100.0%      0.0%
 flops     7 x     7 x    13               229320       0.0%    100.0%      0.0%
 flops    13 x    13 x     7               262626       0.0%    100.0%      0.0%
 flops     7 x     7 x     5               264600       0.0%    100.0%      0.0%
 flops     5 x     5 x     7               271950       0.0%    100.0%      0.0%
 flops    26 x     7 x     7               318500       0.0%    100.0%      0.0%
 flops    26 x     7 x    13               359632       0.0%    100.0%      0.0%
 flops    10 x     7 x     7               367500       0.0%    100.0%      0.0%
 flops    26 x     7 x     5               414960       0.0%    100.0%      0.0%
 flops    10 x     7 x    13               414960       0.0%    100.0%      0.0%
 flops    10 x     7 x     5               478800       0.0%    100.0%      0.0%
 flops    13 x     7 x    13               586768       0.0%    100.0%      0.0%
 flops    13 x     7 x     5               677040       0.0%    100.0%      0.0%
 flops     5 x     7 x    13               677040       0.0%    100.0%      0.0%
 flops     5 x     7 x     5               781200       0.0%    100.0%      0.0%
 flops inhomo. stacks                           0       0.0%      0.0%      0.0%
 flops total                         6.639276E+06       0.0%    100.0%      0.0%
 flops max/rank                      3.243786E+06       0.0%    100.0%      0.0%
 matmuls inhomo. stacks                         0       0.0%      0.0%      0.0%
 matmuls total                               7926       0.0%    100.0%      0.0%
 number of processed stacks                  5498       0.0%    100.0%      0.0%
 average stack size                                     0.0       1.4       0.0
 marketing flops                     7.330595E+06
 -------------------------------------------------------------------------------
 # multiplications                            543
 max memory usage/rank             179.134464E+06
 # max total images/rank                        3
 # max 3D layers                                1
 # MPI messages exchanged                  247608
 MPI messages size (bytes):
  total size                        19.373816E+06
  min size                           0.000000E+00
  max size                           2.704000E+03
  average size                      78.243904E+00
 MPI breakdown and total messages size (bytes):
             size <=      128              217647                        0
       128 < size <=     8192               29961                 19373816
      8192 < size <=    32768                   0                        0
     32768 < size <=   131072                   0                        0
    131072 < size <=  4194304                   0                        0
   4194304 < size <= 16777216                   0                        0
  16777216 < size                               0                        0
 -------------------------------------------------------------------------------

 *** WARNING in dbcsr_mm.F:294 :: Using a non-square number of MPI ranks ***
 *** might lead to poor performance. Used ranks: 24 Suggested: 25 49     ***

 -------------------------------------------------------------------------------
 -                                                                             -
 -                      DBCSR MESSAGE PASSING PERFORMANCE                      -
 -                                                                             -
 -------------------------------------------------------------------------------
 ROUTINE             CALLS      AVE VOLUME [Bytes]
 MP_Bcast               18                     12.
 MP_Allreduce         2788                      8.
 MP_Alltoall          2186                   1369.
 MP_ISend            22802                    162.
 MP_IRecv            22802                    109.
 -------------------------------------------------------------------------------

 -------------------------------------------------------------------------------
 -                                                                             -
 -                                GRID STATISTICS                              -
 -                                                                             -
 -------------------------------------------------------------------------------
 LP    KERNEL             BACKEND                              COUNT     PERCENT
 2     collocate ortho    REF                                  24408      38.29%
 3     collocate ortho    REF                                  13680      21.46%
 2     integrate ortho    REF                                  12204      19.15%
 3     integrate ortho    REF                                   6840      10.73%
 4     collocate ortho    REF                                   3384       5.31%
 4     integrate ortho    REF                                   1692       2.65%
 5     integrate ortho    REF                                    678       1.06%
 6     integrate ortho    REF                                    380       0.60%
 0     collocate general  REF                                    192       0.30%
 3     integrate general  REF                                    192       0.30%
 7     integrate ortho    REF                                     94       0.15%
 -------------------------------------------------------------------------------

 MEMORY| Estimated peak process memory [MiB]                                 172

 -------------------------------------------------------------------------------
 -                                                                             -
 -                         MESSAGE PASSING PERFORMANCE                         -
 -                                                                             -
 -------------------------------------------------------------------------------

 ROUTINE             CALLS      AVE VOLUME [Bytes]
 MP_Group                4
 MP_Bcast              661                 556364.
 MP_Allreduce         1980                    173.
 MP_Sync                80
 MP_Alltoall           528                2988879.
 MP_ISendRecv         3795                  53808.
 MP_Wait              5733
 MP_comm_split          38
 MP_ISend             1710                 171663.
 MP_IRecv             1710                 171404.
 MP_Recv                 6                    896.
 -------------------------------------------------------------------------------


 -------------------------------------------------------------------------------
 -                                                                             -
 -                           R E F E R E N C E S                               -
 -                                                                             -
 -------------------------------------------------------------------------------
 
 CP2K version 8.2, the CP2K developers group (2021).
 CP2K is freely available from https://www.cp2k.org/ .

 Kuehne,Thomas D.; Iannuzzi,Marcella; Del Ben,Mauro;
 Rybkin,Vladimir V.; Seewald,Patrick; Stein,Frederick; Laino,Teodoro;
 Khaliullin,Rustam Z.; Schuett,Ole; Schiffmann,Florian; Golze,Dorothea;
 Wilhelm,Jan; Chulkov,Sergey; Bani-Hashemian,Mohammad Hossein;
 Weber,Valery; Borstnik,Urban; Taillefumier,Mathieu;
 Jakobovits,Alice Shoshana; Lazzaro,Alfio; Pabst,Hans; Mueller,Tiziano;
 Schade,Robert; Guidon,Manuel; Andermatt,Samuel; Holmberg,Nico;
 Schenter,Gregory K.; Hehn,Anna; Bussy,Augustin; Belleflamme,Fabian;
 Tabacchi,Gloria; Gloess,Andreas; Lass,Michael; Bethune,Iain;
 Mundy,Christopher J.; Plessl,Christian; Watkins,Matt;
 VandeVondele,Joost; Krack,Matthias; Hutter,Juerg. 
 The Journal of Chemical Physics, 152 (19), (2020). 
 CP2K: An electronic structure and molecular dynamics software package -
 Quickstep: Efficient and accurate electronic structure calculations.
 https://doi.org/10.1063/5.0007045

 Schuett, Ole; Messmer, Peter; Hutter, Juerg; VandeVondele, Joost. 
 Electronic Structure Calculations on Graphics Processing Units, John
 Wiley & Sons, Ltd, 173-190 (2016). 
 GPU-Accelerated Sparse Matrix-Matrix Multiplication for
 Linear Scaling Density Functional Theory.
 https://doi.org/10.1002/9781118670712.ch8

 Heinecke, A; Henry, G; Hutchinson, M; Pabst, H. 
 Proceedings of Intl. Supercomputing Conference, 981-991 (2016). 
 LIBXSMM: Accelerating Small Matrix Multiplications
 by Runtime Code Generation.
 https://doi.org/10.1109/SC.2016.83

 Borstnik, U; VandeVondele, J; Weber, V; Hutter, J. 
 PARALLEL COMPUTING, 40 (5-6), 47-58 (2014). 
 Sparse matrix multiplication: The distributed block-compressed sparse
 row library.
 https://doi.org/10.1016/j.parco.2014.03.012

 Hutter, J; Iannuzzi, M; Schiffmann, F; VandeVondele, J. 
 WIREs Comput Mol Sci., 4 (1), 15-25 (2014). 
 CP2K: atomistic simulations of condensed matter systems.
 https://doi.org/10.1002/wcms.1159

 Marek, A; Blum, V; Johanni, R; Havu, V; Lang, B; Auckenthaler, T;
 Heinecke, A; Bungartz, H; Lederer, H. 
 Journal of Physics: Condensed Matter, 26 (21), (2014). 
 The ELPA library: scalable parallel eigenvalue solutions for
 electronic structure
 theory and computational science.
 https://doi.org/10.1088/0953-8984/26/21/213201

 VandeVondele, J; Hutter, J. 
 JOURNAL OF CHEMICAL PHYSICS, 127 (11), 114105 (2007). 
 Gaussian basis sets for accurate calculations on molecular systems in
 gas and condensed phases.
 https://doi.org/10.1063/1.2770708

 Krack, M. 
 THEORETICAL CHEMISTRY ACCOUNTS, 114 (1-3), 145-152 (2005). 
 Pseudopotentials for H to Kr optimized for gradient-corrected
 exchange-correlation functionals.
 https://doi.org/10.1007/s00214-005-0655-y

 VandeVondele, J; Krack, M; Mohamed, F; Parrinello, M; Chassaing, T;
 Hutter, J. COMPUTER PHYSICS COMMUNICATIONS, 167 (2), 103-128 (2005). 
 QUICKSTEP: Fast and accurate density functional calculations using a
 mixed Gaussian and plane waves approach.
 https://doi.org/10.1016/j.cpc.2004.12.014

 Frigo, M; Johnson, SG. 
 PROCEEDINGS OF THE IEEE, 93 (2), 216-231 (2005). 
 The design and implementation of FFTW3.
 https://doi.org/10.1109/JPROC.2004.840301

 VandeVondele, J; Hutter, J. 
 JOURNAL OF CHEMICAL PHYSICS, 118 (10), 4365-4369 (2003). 
 An efficient orbital transformation method for electronic structure
 calculations.
 https://doi.org/10.1063/1.1543154

 Hartwigsen, C; Goedecker, S; Hutter, J. 
 PHYSICAL REVIEW B, 58 (7), 3641-3662 (1998). 
 Relativistic separable dual-space Gaussian pseudopotentials from H to Rn.
 https://doi.org/10.1103/PhysRevB.58.3641

 Lippert, G; Hutter, J; Parrinello, M. 
 MOLECULAR PHYSICS, 92 (3), 477-487 (1997). 
 A hybrid Gaussian and plane wave density functional scheme.
 https://doi.org/10.1080/002689797170220

 Perdew, JP; Burke, K; Ernzerhof, M. 
 PHYSICAL REVIEW LETTERS, 77 (18), 3865-3868 (1996). 
 Generalized gradient approximation made simple.
 https://doi.org/10.1103/PhysRevLett.77.3865

 Goedecker, S; Teter, M; Hutter, J. 
 PHYSICAL REVIEW B, 54 (3), 1703-1710 (1996). 
 Separable dual-space Gaussian pseudopotentials.
 https://doi.org/10.1103/PhysRevB.54.1703


 -------------------------------------------------------------------------------
 -                                                                             -
 -                                T I M I N G                                  -
 -                                                                             -
 -------------------------------------------------------------------------------
 SUBROUTINE                       CALLS  ASD         SELF TIME        TOTAL TIME
                                MAXIMUM       AVERAGE  MAXIMUM  AVERAGE  MAXIMUM
 CP2K                                 1  1.0    0.020    0.024   38.287   38.289
 qs_forces                            1  2.0    0.001    0.013   34.922   34.922
 qs_energies                          1  3.0    0.001    0.010   34.072   34.084
 scf_env_do_scf                       1  4.0    0.000    0.000   28.547   28.560
 scf_env_do_scf_inner_loop           35  5.0    0.001    0.013   26.170   26.189
 qs_scf_new_mos                      35  6.0    0.000    0.000   12.888   12.925
 qs_scf_loop_do_ot                   35  7.0    0.000    0.000   12.888   12.924
 ot_scf_mini                         35  8.0    0.000    0.001   12.325   12.350
 rebuild_ks_matrix                   36  6.9    0.000    0.000    9.062    9.069
 qs_ks_build_kohn_sham_matrix        36  7.9    0.004    0.006    9.062    9.069
 pw_transfer                        532 10.4    0.024    0.040    8.648    8.808
 fft_wrap_pw1pw2                    460 11.4    0.004    0.004    8.605    8.768
 qs_ks_update_qs_env                 36  6.0    0.000    0.000    8.359    8.371
 fft3d_ps                           460 13.4    1.280    2.289    8.087    8.272
 dbcsr_multiply_generic             543 10.9    0.015    0.028    7.676    7.810
 fft_wrap_pw1pw2_200                295 12.7    0.158    0.280    6.984    7.148
 mp_alltoall_z22v                   460 15.4    6.613    6.911    6.613    6.911
 dbcsr_complete_redistribute        103 11.9    0.005    0.017    6.634    6.736
 qs_vxc_create                       36  8.9    0.000    0.000    6.530    6.553
 qs_ot_get_p                         36  8.9    0.000    0.000    6.387    6.423
 copy_dbcsr_to_fm                    52 10.9    0.001    0.001    5.588    5.653
 qs_rho_update_rho                   36  6.0    0.000    0.000    4.932    4.972
 calculate_rho_elec                  36  7.0    0.022    0.046    4.931    4.972
 qs_ot_p2m_diag                      35 10.0    0.001    0.001    4.907    4.970
 ot_mini                             35  9.0    0.000    0.000    4.644    4.676
 xc_rho_set_and_dset_create          36 10.9    0.014    0.026    3.718    4.640
 xc_vxc_pw_create                    19  9.8    0.037    0.107    4.364    4.382
 density_rs2pw                       36  8.0    0.001    0.002    4.096    4.170
 cp_dbcsr_syevd                      37 10.9    0.002    0.002    3.891    3.948
 init_scf_run                         1  4.0    0.000    0.000    3.898    3.899
 scf_env_initial_rho_setup            1  5.0    0.000    0.000    3.898    3.899
 mp_alltoall_d11v                   572 13.0    3.596    3.847    3.596    3.847
 yz_to_x                            221 13.7    0.057    0.092    3.554    3.789
 qs_ot_get_derivative                18 10.0    0.000    0.000    3.663    3.678
 mp_sum_l                          2859 11.0    3.100    3.637    3.100    3.637
 calculate_first_density_matrix       1  6.0    0.000    0.000    3.464    3.471
 x_to_yz                            239 15.1    0.131    0.257    3.247    3.331
 mp_bcast_i                         118  3.4    1.688    3.276    1.688    3.276
 mp_sum_d                          1050  7.6    2.302    3.025    2.302    3.025
 create_qs_kind_set                   1  2.0    0.000    0.000    2.989    2.990
 read_qs_kind                         2  3.0    0.018    0.031    2.989    2.990
 parser_read_line                  5424  4.0    0.002    0.002    2.971    2.973
 parser_read_line_low                 8  5.0    0.005    0.017    2.969    2.972
 broadcast_input_information          8  6.0    0.000    0.000    2.964    2.969
 mp_bcast_am                          8  7.0    1.429    2.955    1.456    2.955
 copy_fm_to_dbcsr                    51 11.0    0.000    0.000    2.787    2.896
 cp_dbcsr_sm_fm_multiply              5  8.0    0.000    0.000    2.847    2.860
 mp_alltoall_i11v                   412 13.0    2.615    2.735    2.615    2.735
 multiply_cannon                    543 11.9    0.029    0.036    2.040    2.404
 mp_waitall_1                     34431 14.7    1.936    2.374    1.936    2.374
 xc_exc_calc                         17 10.0    0.008    0.022    2.166    2.171
 make_m2s                          1086 11.9    0.012    0.013    1.724    2.037
 rs_pw_transfer                     222 10.0    0.002    0.003    1.954    2.016
 make_images                       1086 12.9    0.019    0.032    1.670    1.986
 init_scf_loop                        1  5.0    0.000    0.002    1.898    1.916
 xc_functional_eval                  36 11.9    0.000    0.000    0.982    1.898
 pbe_lda_eval                        36 12.9    0.982    1.897    0.982    1.897
 make_images_sizes                 1086 13.9    0.001    0.001    1.520    1.819
 mp_alltoall_i44                   1086 14.9    1.520    1.818    1.520    1.818
 dbcsr_desymmetrize_deep             52 11.9    0.001    0.001    1.736    1.808
 mp_cart_sub                        106 12.8    1.731    1.732    1.731    1.732
 cp_fm_syevd                         37 11.9    0.000    0.000    1.602    1.657
 sum_up_and_integrate                19  8.8    0.003    0.004    1.634    1.653
 integrate_v_rspace                  19  9.8    0.000    0.000    1.630    1.649
 multiply_cannon_loop               543 12.9    0.022    0.025    1.098    1.557
 mp_sum_b                           961 12.1    0.914    1.463    0.914    1.463
 multiply_cannon_metrocomm3        6516 13.9    0.006    0.007    0.616    1.463
 mp_allgather_i34                   543 12.9    0.888    1.434    0.888    1.434
 potential_pw2rs                     19 10.8    0.001    0.001    1.292    1.301
 cp_fm_redistribute_start            38 12.8    0.897    0.952    1.188    1.255
 apply_preconditioner_dbcsr          19 11.0    0.000    0.000    1.169    1.204
 apply_all                           19 12.0    0.000    0.000    1.169    1.204
 hybrid_alltoall_any               1138 14.8    0.006    0.007    0.964    1.184
 multiply_cannon_metrocomm1        6516 13.9    0.004    0.004    0.417    1.177
 prepare_preconditioner               1  6.0    0.000    0.000    1.150    1.162
 make_preconditioner                  1  7.0    0.001    0.010    1.130    1.142
 qs_ot_get_orbitals                  35  9.0    0.000    0.000    1.110    1.112
 mp_maxloc_dv                      1075  1.0    0.681    1.013    0.681    1.013
 qs_energies_compute_matrix_w         1  4.0    0.000    0.000    0.996    1.009
 calculate_w_matrix_ot                1  5.0    0.000    0.000    0.996    1.009
 cp_fm_redistribute_end              38 12.8    0.879    0.898    0.890    0.977
 ot_new_cg_direction                 18 10.0    0.001    0.013    0.954    0.973
 make_basis_sm                        1  7.0    0.000    0.000    0.949    0.965
 arnoldi_extremal                    36  9.9    0.000    0.000    0.824    0.956
 arnoldi_normal_ev                   36 10.9    0.001    0.001    0.824    0.956
 make_full_all                        1  8.0    0.001    0.013    0.869    0.955
 calculate_dm_sparse                 36  8.0    0.000    0.000    0.892    0.911
 mp_waitany                        1710 11.9    0.714    0.876    0.714    0.876
 build_subspace                      36 11.9    0.001    0.001    0.760    0.857
 fft_wrap_pw1pw2_70                  55 12.0    0.007    0.019    0.820    0.855
 rs_pw_transfer_RS2PW_200            37  9.9    0.158    0.184    0.759    0.850
 cp_dbcsr_plus_fm_fm_t_native         2  7.0    0.000    0.000    0.824    0.845
 mp_alltoall_i22                    172 13.0    0.591    0.824    0.591    0.824
 qs_ks_update_qs_env_forces           1  3.0    0.000    0.000    0.822    0.824
 dbcsr_cholesky_invert                1 11.0    0.052    0.066    0.767    0.780
 -------------------------------------------------------------------------------

 The number of warnings for this run is : 2
 
 -------------------------------------------------------------------------------
  **** **** ******  **  PROGRAM ENDED AT                 2021-10-27 16:49:31.576
 ***** ** ***  *** **   PROGRAM RAN ON                                     node2
 **    ****   ******    PROGRAM RAN BY                                   lujunbo
 ***** **    ** ** **   PROGRAM PROCESS ID                                725707
  **** **  *******  **  PROGRAM STOPPED IN /home/lujunbo/WORK/deepmd/c2h6/mtd/tr
                                           ain_4_sys/cp2k_md/sys_4/data/task_295
                                           5
