       3
 i =        0, time =        0.000, E =       -37.7638499609
  C         0.0000000000        0.0000000000        0.0000000000
  O         0.0000000000        0.0000000000       -1.1600000000
  O         0.0000000000        0.0000000000        1.1600000000
       3
 i =        1, time =        0.500, E =       -37.7639577815
  C        -0.0001055932        0.0003825871       -0.0002644661
  O        -0.0010218144        0.0002033064       -1.1607863939
  O         0.0011014400       -0.0004906146        1.1609848457
       3
 i =        2, time =        1.000, E =       -37.7640851206
  C        -0.0002101861        0.0007615936       -0.0005127262
  O        -0.0020367231        0.0004056905       -1.1618176413
  O         0.0021951448       -0.0009773621        1.1622029103
       3
 i =        3, time =        1.500, E =       -37.7642244380
  C        -0.0003133762        0.0011356811       -0.0007313307
  O        -0.0030438060        0.0006074198       -1.1630802073
  O         0.0032798018       -0.0014592353        1.1636310047
       3
 i =        4, time =        2.000, E =       -37.7643675475
  C        -0.0004147332        0.0015034711       -0.0009087478
  O        -0.0040420081        0.0008087339       -1.1645564785
  O         0.0043539274       -0.0019351530        1.1652431833
       3
 i =        5, time =        2.500, E =       -37.7645061009
  C        -0.0005138077        0.0018635487       -0.0010359892
  O        -0.0050300969        0.0010098372       -1.1662248905
  O         0.0054158335       -0.0024039528        1.1670113243
       3
 i =        6, time =        3.000, E =       -37.7646320818
  C        -0.0006101417        0.0022144685       -0.0011070243
  O        -0.0060066256        0.0012108915       -1.1680602362
  O         0.0064636096       -0.0028643847        1.1689057351
       3
 i =        7, time =        3.500, E =       -37.7647382273
  C        -0.0007032802        0.0025547681       -0.0011190354
  O        -0.0069699190        0.0014120071       -1.1700340464
  O         0.0074951252       -0.0033151134        1.1708957182
       3
 i =        8, time =        4.000, E =       -37.7648183722
  C        -0.0007927815        0.0028829815       -0.0010723935
  O        -0.0079180584        0.0016132360       -1.1721151000
  O         0.0085080235       -0.0037547180        1.1729500585
       3
 i =        9, time =        4.500, E =       -37.7648677687
  C        -0.0008782303        0.0031976590       -0.0009705244
  O        -0.0088488594        0.0018145628       -1.1742699023
  O         0.0094997191       -0.0041816972        1.1750374208
       3
 i =       10, time =        5.000, E =       -37.7648833988
  C        -0.0009592481        0.0034973895       -0.0008195499
  O        -0.0097598627        0.0020158969       -1.1764632804
  O         0.0104674198       -0.0045944869        1.1771267252
       3
 i =       11, time =        5.500, E =       -37.7648642357
  C        -0.0010354987        0.0037808153       -0.0006278428
  O        -0.0106483562        0.0022170721       -1.1786590190
  O         0.0114081789       -0.0049914851        1.1791875168
       3
 i =       12, time =        6.000, E =       -37.7648113840
  C        -0.0011066934        0.0040466565       -0.0004054731
  O        -0.0115114441        0.0024178527       -1.1808206059
  O         0.0123189786       -0.0053710912        1.1811903567
       3
 i =       13, time =        6.500, E =       -37.7647280683
  C        -0.0011725928        0.0042937293       -0.0001636186
  O        -0.0123461383        0.0026179432       -1.1829119904
  O         0.0131968211       -0.0057317465        1.1831071849
       3
 i =       14, time =        7.000, E =       -37.7646194588
  C        -0.0012330063        0.0045209630        0.0000860390
  O        -0.0131494633        0.0028170022       -1.1848983634
  O         0.0140388318       -0.0060719795        1.1849116838
       3
 i =       15, time =        7.500, E =       -37.7644923362
  C        -0.0012877882        0.0047274101        0.0003318654
  O        -0.0139185709        0.0030146623       -1.1867468949
  O         0.0148423595       -0.0063904515        1.1865796155
       3
 i =       16, time =        8.000, E =       -37.7643546240
  C        -0.0013368322        0.0049122556        0.0005628103
  O        -0.0146508520        0.0032105513       -1.1884274086
  O         0.0156050590       -0.0066859938        1.1880890832
       3
 i =       17, time =        8.500, E =       -37.7642148321
  C        -0.0013800655        0.0050748232        0.0007688777
  O        -0.0153440293        0.0034043076       -1.1899130009
  O         0.0163249506       -0.0069576313        1.1894207717
       3
 i =       18, time =        9.000, E =       -37.7640814658
  C        -0.0014174421        0.0052145761        0.0009414881
  O        -0.0159962169        0.0035955935       -1.1911805176
  O         0.0170004492       -0.0072045960        1.1905581194
       3
 i =       19, time =        9.500, E =       -37.7639624592
  C        -0.0014489358        0.0053311173        0.0010737389
  O        -0.0166059466        0.0037841036       -1.1922108955
  O         0.0176303670       -0.0074263282        1.1914874255
       3
 i =       20, time =       10.000, E =       -37.7638646757
  C        -0.0014745348        0.0054241861        0.0011606045
  O        -0.0171721649        0.0039695675       -1.1929894181
  O         0.0182138932       -0.0076224688        1.1921979205
       3
 i =       21, time =       10.500, E =       -37.7637935091
  C        -0.0014942351        0.0054936551        0.0011990692
  O        -0.0176942083        0.0041517490       -1.1935058610
  O         0.0187505625       -0.0077928461        1.1926817830
       3
 i =       22, time =       11.000, E =       -37.7637526026
  C        -0.0015080368        0.0055395248        0.0011881658
  O        -0.0181717698        0.0043304423       -1.1937545361
  O         0.0192402189       -0.0079374608        1.1929341395
       3
 i =       23, time =       11.500, E =       -37.7637436913
  C        -0.0015159407        0.0055619206        0.0011289607
  O        -0.0186048647        0.0045054683       -1.1937342665
  O         0.0196829802       -0.0080564720        1.1929530404
       3
 i =       24, time =       12.000, E =       -37.7637665662
  C        -0.0015179470        0.0055610875        0.0010244699
  O        -0.0189937991        0.0046766711       -1.1934482950
  O         0.0200792056       -0.0081501848        1.1927394320
       3
 i =       25, time =       12.500, E =       -37.7638191521
  C        -0.0015140546        0.0055373870        0.0008795268
  O        -0.0193391476        0.0048439182       -1.1929041427
  O         0.0204294721       -0.0082190425        1.1922971214
       3
 i =       26, time =       13.000, E =       -37.7638976854
  C        -0.0015042628        0.0054912934        0.0007005911
  O        -0.0196417407        0.0050071024       -1.1921134196
  O         0.0207345618       -0.0082636217        1.1916327441
       3
 i =       27, time =       13.500, E =       -37.7639969814
  C        -0.0014885737        0.0054233919        0.0004955097
  O        -0.0199026594        0.0051661463       -1.1910915895
  O         0.0209954567       -0.0082846323        1.1907557257
       3
 i =       28, time =       14.000, E =       -37.7641107734
  C        -0.0014669963        0.0053343744        0.0002732293
  O        -0.0201232337        0.0053210093       -1.1898576807
  O         0.0212133402       -0.0082829171        1.1896782308
       3
 i =       29, time =       14.500, E =       -37.7642321061
  C        -0.0014395509        0.0052250354        0.0000434421
  O        -0.0203050382        0.0054716938       -1.1884339336
  O         0.0213896002       -0.0082594533        1.1884150977
       3
 i =       30, time =       15.000, E =       -37.7643537584
  C        -0.0014062755        0.0050962697       -0.0001837303
  O        -0.0204498854        0.0056182504       -1.1868454356
  O         0.0215258354       -0.0082153515        1.1869837341
       3
 i =       31, time =       15.500, E =       -37.7644686768
  C        -0.0013672314        0.0049490645       -0.0003981819
  O        -0.0205598062        0.0057607793       -1.1851196410
  O         0.0216238542       -0.0081518491        1.1854039879
       3
 i =       32, time =       16.000, E =       -37.7645703870
  C        -0.0013225113        0.0047844937       -0.0005902900
  O        -0.0206370188        0.0058994294       -1.1832858559
  O         0.0216856663       -0.0080702997        1.1836979980
       3
 i =       33, time =       16.500, E =       -37.7646533592
  C        -0.0012722447        0.0046037060       -0.0007513325
  O        -0.0206838838        0.0060343931       -1.1813746780
  O         0.0217134569       -0.0079721532        1.1818899495
       3
 i =       34, time =       17.000, E =       -37.7647133024
  C        -0.0012166050        0.0044079195       -0.0008739273
  O        -0.0207028512        0.0061658968       -1.1794174193
  O         0.0217095524       -0.0078589341        1.1800058188
       3
 i =       35, time =       17.500, E =       -37.7647473757
  C        -0.0011558154        0.0041984100       -0.0009524344
  O        -0.0206963989        0.0062941856       -1.1774455012
  O         0.0216763755       -0.0077322122        1.1780730532
       3
 i =       36, time =       18.000, E =       -37.7647543073
  C        -0.0010901480        0.0039764894       -0.0009832707
  O        -0.0206669616        0.0064195087       -1.1754898884
  O         0.0216163885       -0.0075935647        1.1761202155
       3
 i =       37, time =       18.500, E =       -37.7647344249
  C        -0.0010199278        0.0037434974       -0.0009651830
  O        -0.0206168677        0.0065420995       -1.1735805007
  O         0.0215320398       -0.0074445470        1.1741765728
       3
 i =       38, time =       19.000, E =       -37.7646895994
  C        -0.0009455281        0.0035007811       -0.0008993613
  O        -0.0205482804        0.0066621598       -1.1717457439
  O         0.0214256985       -0.0072866566        1.1722716791
       3
 i =       39, time =       19.500, E =       -37.7646231106
  C        -0.0008673711        0.0032496917       -0.0007895175
  O        -0.0204631591        0.0067798438       -1.1700120130
  O         0.0212996079       -0.0071213093        1.1704349083
       3
 i =       40, time =       20.000, E =       -37.7645394488
  C        -0.0007859176        0.0029915628       -0.0006417044
  O        -0.0203632279        0.0068952506       -1.1684033667
  O         0.0211558331       -0.0069498121        1.1686949722
       3
 i =       41, time =       20.500, E =       -37.7644440592
  C        -0.0007016586        0.0027277004       -0.0004640755
  O        -0.0202499637        0.0070084138       -1.1669412093
  O         0.0209962298       -0.0067733488        1.1670794149
       3
 i =       42, time =       21.000, E =       -37.7643430489
  C        -0.0006151049        0.0024593734       -0.0002664730
  O        -0.0201245978        0.0071192969       -1.1656441024
  O         0.0208224268       -0.0065929722        1.1656141158
       3
 i =       43, time =       21.500, E =       -37.7642428555
  C        -0.0005267754        0.0021878060       -0.0000599148
  O        -0.0199881279        0.0072277928       -1.1645276211
  O         0.0206358189       -0.0064096005        1.1643227726
       3
 i =       44, time =       22.000, E =       -37.7641498755
  C        -0.0004371856        0.0019141733        0.0001439787
  O        -0.0198413357        0.0073337322       -1.1636042688
  O         0.0204375719       -0.0062240271        1.1632263970
       3
 i =       45, time =       22.500, E =       -37.7640700616
  C        -0.0003468339        0.0016395973        0.0003336612
  O        -0.0196848038        0.0074368903       -1.1628834628
  O         0.0202286254       -0.0060369317        1.1623428361
       3
 i =       46, time =       23.000, E =       -37.7640085393
  C        -0.0002561909        0.0013651482        0.0004983521
  O        -0.0195189385        0.0075369954       -1.1623716420
  O         0.0200097063       -0.0058488966        1.1616863683
       3
 i =       47, time =       23.500, E =       -37.7639692841
  C        -0.0001656892        0.0010918468        0.0006286435
  O        -0.0193439853        0.0076337290       -1.1620723878
  O         0.0197813400       -0.0056604179        1.1612674040
       3
 i =       48, time =       24.000, E =       -37.7639548626
  C        -0.0000757171        0.0008206692        0.0007170552
  O        -0.0191600489        0.0077267266       -1.1619865670
  O         0.0195438698       -0.0054719150        1.1610922334
       3
 i =       49, time =       24.500, E =       -37.7639662519
  C         0.0000133859        0.0005525528        0.0007584642
  O        -0.0189671107        0.0078155807       -1.1621124633
  O         0.0192974748       -0.0052837416        1.1611628559
       3
 i =       50, time =       25.000, E =       -37.7640027696
  C         0.0001013309        0.0002884035        0.0007503874
  O        -0.0187650406        0.0078998404       -1.1624459043
  O         0.0190421825       -0.0050961961        1.1614769143
       3
 i =       51, time =       25.500, E =       -37.7640621290
  C         0.0001878772        0.0000291033        0.0006931153
  O        -0.0185536008        0.0079790075       -1.1629803911
  O         0.0187778753       -0.0049095268        1.1620277337
       3
 i =       52, time =       26.000, E =       -37.7641406123
  C         0.0002728277       -0.0002244810        0.0005896421
  O        -0.0183324459        0.0080525310       -1.1637071986
  O         0.0185042919       -0.0047239398        1.1628044782
       3
 i =       53, time =       26.500, E =       -37.7642333384
  C         0.0003560217       -0.0004714907        0.0004454603
  O        -0.0181011197        0.0081198022       -1.1646154619
  O         0.0182210284       -0.0045396066        1.1637923828
       3
 i =       54, time =       27.000, E =       -37.7643346182
  C         0.0004373256       -0.0007110707        0.0002681749
  O        -0.0178590575        0.0081801512       -1.1656922214
  O         0.0179275443       -0.0043566700        1.1649730830
       3
 i =       55, time =       27.500, E =       -37.7644383751
  C         0.0005166228       -0.0009423660        0.0000670398
  O        -0.0176055808        0.0082328402       -1.1669225071
  O         0.0176231641       -0.0041752446        1.1663250329
       3
 i =       56, time =       28.000, E =       -37.7645385818
  C         0.0005938033       -0.0011645207       -0.0001476051
  O        -0.0173398919        0.0082770569       -1.1682894564
  O         0.0173070809       -0.0039954168        1.1678240284
       3
 i =       57, time =       28.500, E =       -37.7646296550
  C         0.0006687546       -0.0013766793       -0.0003649401
  O        -0.0170610713        0.0083119081       -1.1697744627
  O         0.0169783594       -0.0038172439        1.1694437847
       3
 i =       58, time =       29.000, E =       -37.7647067756
  C         0.0007413530       -0.0015779909       -0.0005742600
  O        -0.0167680788        0.0083364212       -1.1713573460
  O         0.0166359467       -0.0036407600        1.1711565201
       3
 i =       59, time =       29.500, E =       -37.7647661370
  C         0.0008114567       -0.0017676136       -0.0007655536
  O        -0.0164597603        0.0083495497       -1.1730165212
  O         0.0162786884       -0.0034659859        1.1729335341
       3
 i =       60, time =       30.000, E =       -37.7648051097
  C         0.0008789012       -0.0019447244       -0.0009300383
  O        -0.0161348618        0.0083501850       -1.1747291955
  O         0.0159053535       -0.0032929352        1.1747457875
       3
 i =       61, time =       30.500, E =       -37.7648223287
  C         0.0009434970       -0.0021085251       -0.0010605026
  O        -0.0157920518        0.0083371697       -1.1764716247
  O         0.0155146686       -0.0031216213        1.1765644045
       3
 i =       62, time =       31.000, E =       -37.7648177122
  C         0.0010050298       -0.0022582527       -0.0011516043
  O        -0.0154299568        0.0083093171       -1.1782193854
  O         0.0151053640       -0.0029520628        1.1783611600
       3
 i =       63, time =       31.500, E =       -37.7647924150
  C         0.0010632632       -0.0023931940       -0.0012000643
  O        -0.0150472072        0.0082654382       -1.1799476953
  O         0.0146762277       -0.0027842870        1.1801089436
       3
 i =       64, time =       32.000, E =       -37.7647487278
  C         0.0011179405       -0.0025126877       -0.0012047022
  O        -0.0146424832        0.0082043660       -1.1816317666
  O         0.0142261588       -0.0026183387        1.1817821459
       3
 i =       65, time =       32.500, E =       -37.7646899267
  C         0.0011687923       -0.0026161426       -0.0011663902
  O        -0.0142145673        0.0081249889       -1.1832471713
  O         0.0137542173       -0.0024542827        1.1833570062
       3
 i =       66, time =       33.000, E =       -37.7646200778
  C         0.0012155427       -0.0027030490       -0.0010879445
  O        -0.0137623907        0.0080262816       -1.1847702214
  O         0.0132596650       -0.0022922049        1.1848119294
       3
 i =       67, time =       33.500, E =       -37.7645438062
  C         0.0012579161       -0.0027729810       -0.0009738669
  O        -0.0132850705        0.0079073307       -1.1861783682
  O         0.0127419945       -0.0021322141        1.1861277105
       3
 i =       68, time =       34.000, E =       -37.7644660388
  C         0.0012956448       -0.0028256077       -0.0008300955
  O        -0.0127819420        0.0077673603       -1.1874505720
  O         0.0122009488       -0.0019744393        1.1872877362
       3
 i =       69, time =       34.500, E =       -37.7643917330
  C         0.0013284767       -0.0028606990       -0.0006636891
  O        -0.0122525826        0.0076057514       -1.1885676711
  O         0.0116365321       -0.0018190268        1.1882781288
       3
 i =       70, time =       35.000, E =       -37.7643256020
  C         0.0013561814       -0.0028781282       -0.0004824652
  O        -0.0116968265        0.0074220549       -1.1895127188
  O         0.0110490117       -0.0016661368        1.1890878178
       3
 i =       71, time =       35.500, E =       -37.7642718512
  C         0.0013785563       -0.0028778755       -0.0002946830
  O        -0.0111147735        0.0072160028       -1.1902712777
  O         0.0104389154       -0.0015159386        1.1897085963
       3
 i =       72, time =       36.000, E =       -37.7642339407
  C         0.0013954320       -0.0028600301       -0.0001087199
  O        -0.0105067937        0.0069875148       -1.1908316786
  O         0.0098070259       -0.0013686066        1.1901351319
       3
 i =       73, time =       36.500, E =       -37.7642143857
  C         0.0014066772       -0.0028247918        0.0000673729
  O        -0.0098735284        0.0067367046       -1.1911852931
  O         0.0091543724       -0.0012243155        1.1903648932
       3
 i =       74, time =       37.000, E =       -37.7642146100
  C         0.0014122009       -0.0027724693        0.0002261138
  O        -0.0092158889        0.0064638837       -1.1913266706
  O         0.0084822201       -0.0010832372        1.1903980876
       3
 i =       75, time =       37.500, E =       -37.7642348558
  C         0.0014119546       -0.0027034798        0.0003607912
  O        -0.0085350524        0.0061695658       -1.1912536657
  O         0.0077920575       -0.0009455361        1.1902376214
       3
 i =       76, time =       38.000, E =       -37.7642741656
  C         0.0014059341       -0.0026183456        0.0004658648
  O        -0.0078324582        0.0058544688       -1.1909675645
  O         0.0070855788       -0.0008113661        1.1898889051
       3
 i =       77, time =       38.500, E =       -37.7643304352
  C         0.0013941791       -0.0025176914        0.0005371095
  O        -0.0071097963        0.0055195157       -1.1904730844
  O         0.0063646607       -0.0006808652        1.1893597303
       3
 i =       78, time =       39.000, E =       -37.7644005392
  C         0.0013767719       -0.0024022390        0.0005717534
  O        -0.0063689897        0.0051658294       -1.1897783365
  O         0.0056313318       -0.0005541511        1.1886601188
       3
 i =       79, time =       39.500, E =       -37.7644805216
  C         0.0013538362       -0.0022728032        0.0005686572
  O        -0.0056121662        0.0047947223       -1.1888947454
  O         0.0048877341       -0.0004313156        1.1878021071
       3
 i =       80, time =       40.000, E =       -37.7645658426
  C         0.0013255340       -0.0021302838        0.0005283387
  O        -0.0048416167        0.0044076769       -1.1878368666
  O         0.0041360775       -0.0003124190        1.1867995549
       3
 i =       81, time =       40.500, E =       -37.7646516619
  C         0.0012920613       -0.0019756571        0.0004530189
  O        -0.0040597425        0.0040063162       -1.1866221766
  O         0.0033785894       -0.0001974853        1.1856679204
       3
 i =       82, time =       41.000, E =       -37.7647331407
  C         0.0012536446       -0.0018099676        0.0003465364
  O        -0.0032689930        0.0035923664       -1.1852707669
  O         0.0026174657       -0.0000864979        1.1844240480
       3
 i =       83, time =       41.500, E =       -37.7648057422
  C         0.0012105349       -0.0016343147        0.0002142139
  O        -0.0024718003        0.0031676139       -1.1838049761
  O         0.0018548239        0.0000206026        1.1830859310
       3
 i =       84, time =       42.000, E =       -37.7648655097
  C         0.0011630032       -0.0014498443        0.0000626718
  O        -0.0016705204        0.0027338642       -1.1822489986
  O         0.0010926616        0.0001239206        1.1816724872
       3
 i =       85, time =       42.500, E =       -37.7649093048
  C         0.0011113346       -0.0012577350       -0.0001004393
  O        -0.0008673785        0.0022929003       -1.1806284257
  O         0.0003328213        0.0002236053        1.1802033256
       3
 i =       86, time =       43.000, E =       -37.7649349882
  C         0.0010558227       -0.0010591838       -0.0002667833
  O        -0.0000644259        0.0018464448       -1.1789697467
  O        -0.0004230351        0.0003198481        1.1786985206
       3
 i =       87, time =       43.500, E =       -37.7649415301
  C         0.0009967642       -0.0008553923       -0.0004277327
  O         0.0007364907        0.0013961280       -1.1772998421
  O        -0.0011734412        0.0004128796        1.1771784106
       3
 i =       88, time =       44.000, E =       -37.7649290405
  C         0.0009344555       -0.0006475562       -0.0005747135
  O         0.0015337421        0.0009434665       -1.1756454958
  O        -0.0019171312        0.0005029653        1.1756633666
       3
 i =       89, time =       44.500, E =       -37.7648987230
  C         0.0008691889       -0.0004368520       -0.0006997800
  O         0.0023259171        0.0004898489       -1.1740328419
  O        -0.0026530344        0.0005903995        1.1741736574
       3
 i =       90, time =       45.000, E =       -37.7648527630
  C         0.0008012556       -0.0002244335       -0.0007959567
  O         0.0031118105        0.0000365351       -1.1724869091
  O        -0.0033802673        0.0006755023        1.1727292266
       3
 i =       91, time =       45.500, E =       -37.7647941666
  C         0.0007309403       -0.0000114179       -0.0008576186
  O         0.0038904040       -0.0004153438       -1.1710312166
  O        -0.0040981136        0.0007586115        1.1713495446
       3
 i =       92, time =       46.000, E =       -37.7647265659
  C         0.0006585242        0.0002011164       -0.0008808321
  O         0.0046608450       -0.0008647768       -1.1696873912
  O        -0.0048060082        0.0008400796        1.1700534517
       3
 i =       93, time =       46.500, E =       -37.7646539965
  C         0.0005842878        0.0004121322       -0.0008636584
  O         0.0054224240       -0.0013108630       -1.1684747818
  O        -0.0055035196        0.0009202689        1.1688589750
       3
 i =       94, time =       47.000, E =       -37.7645806615
  C         0.0005085135        0.0006206345       -0.0008062770
  O         0.0061745536       -0.0017528026       -1.1674101777
  O        -0.0061903315        0.0009995473        1.1677831223
       3
 i =       95, time =       47.500, E =       -37.7645106912
  C         0.0004314880        0.0008256690       -0.0007109939
  O         0.0069167415       -0.0021898827       -1.1665075899
  O        -0.0068662200        0.0010782831        1.1668416584
       3
 i =       96, time =       48.000, E =       -37.7644479173
  C         0.0003535061        0.0010263183       -0.0005821880
  O         0.0076485629       -0.0026214629       -1.1657780621
  O        -0.0075310292        0.0011568410        1.1660488715
       3
 i =       97, time =       48.500, E =       -37.7643956799
  C         0.0002748727        0.0012216985       -0.0004260764
  O         0.0083696344       -0.0030469585       -1.1652295927
  O        -0.0081846478        0.0012355775        1.1654173228
       3
 i =       98, time =       49.000, E =       -37.7643566642
  C         0.0001959042        0.0014109540       -0.0002503901
  O         0.0090795941       -0.0034658284       -1.1648671073
  O        -0.0088269871        0.0013148383        1.1649575879
       3
 i =       99, time =       49.500, E =       -37.7643327726
  C         0.0001169290        0.0015932533       -0.0000639604
  O         0.0097780844       -0.0038775645       -1.1646924961
  O        -0.0094579630        0.0013949561        1.1646780000
       3
 i =      100, time =       50.000, E =       -37.7643250367
  C         0.0000382856        0.0017677843        0.0001237708
  O         0.0104647351       -0.0042816801       -1.1647047166
  O        -0.0100774753        0.0014762490        1.1645844069
       3
 i =      101, time =       50.500, E =       -37.7643335719
  C        -0.0000396794        0.0019337507        0.0003032927
  O         0.0111391475       -0.0046776998       -1.1648999706
  O        -0.0106853900        0.0015590183        1.1646799611
       3
 i =      102, time =       51.000, E =       -37.7643575672
  C        -0.0001166162        0.0020903706        0.0004656138
  O         0.0118008801       -0.0050651496       -1.1652718987
  O        -0.0112815199        0.0016435453        1.1649648953
       3
 i =      103, time =       51.500, E =       -37.7643953218
  C        -0.0001921758        0.0022368732        0.0006026892
  O         0.0124494334       -0.0054435468       -1.1658117840
  O        -0.0118656063        0.0017300890        1.1654364254
       3
 i =      104, time =       52.000, E =       -37.7644443218
  C        -0.0002660164        0.0023725020        0.0007079456
  O         0.0130842364       -0.0058123918       -1.1665088119
  O        -0.0124373002        0.0018188823        1.1660886354
       3
 i =      105, time =       52.500, E =       -37.7645013675
  C        -0.0003378081        0.0024965138        0.0007765536
  O         0.0137046294       -0.0061711577       -1.1673502815
  O        -0.0129961426        0.0019101276        1.1669124991
       3
 i =      106, time =       53.000, E =       -37.7645627446
  C        -0.0004072388        0.0026081831        0.0008057242
  O         0.0143098490       -0.0065192810       -1.1683218684
  O        -0.0135415452        0.0020039917        1.1678959287
       3
 i =      107, time =       53.500, E =       -37.7646244385
  C        -0.0004740185        0.0027068093        0.0007948009
  O         0.0148990162       -0.0068561552       -1.1694078609
  O        -0.0140727710        0.0021005983        1.1690239383
       3
 i =      108, time =       54.000, E =       -37.7646823761
  C        -0.0005378821        0.0027917178        0.0007452530
  O         0.0154711275       -0.0071811238       -1.1705913848
  O        -0.0145889138        0.0022000235        1.1702788595
       3
 i =      109, time =       54.500, E =       -37.7647326823
  C        -0.0005985940        0.0028622782        0.0006605856
  O         0.0160250576       -0.0074934852       -1.1718546300
  O        -0.0150888886        0.0023022884        1.1716406137
       3
 i =      110, time =       55.000, E =       -37.7647719351
  C        -0.0006559463        0.0029179030        0.0005460609
  O         0.0165595586       -0.0077924910       -1.1731790558
  O        -0.0155714271        0.0024073579        1.1730871107
       3
 i =      111, time =       55.500, E =       -37.7647973962
  C        -0.0007097585        0.0029580555        0.0004083845
  O         0.0170732676       -0.0080773548       -1.1745455887
  O        -0.0160350889        0.0025151413        1.1745946494
       3
 i =      112, time =       56.000, E =       -37.7648071995
  C        -0.0007598750        0.0029822568        0.0002553078
  O         0.0175647270       -0.0083472589       -1.1759348099
  O        -0.0164782815        0.0026254874        1.1761383890
       3