 DBCSR| CPU Multiplication driver                                           XSMM
 DBCSR| Multrec recursion limit                                              512
 DBCSR| Multiplication stack size                                           1000
 DBCSR| Maximum elements for images                                    UNLIMITED
 DBCSR| Multiplicative factor virtual images                                   1
 DBCSR| Use multiplication densification                                       T
 DBCSR| Multiplication size stacks                                             3
 DBCSR| Use memory pool for CPU allocation                                     F
 DBCSR| Number of 3D layers                                               SINGLE
 DBCSR| Use MPI memory allocation                                              F
 DBCSR| Use RMA algorithm                                                      F
 DBCSR| Use Communication thread                                               T
 DBCSR| Communication thread load                                             87
 DBCSR| MPI: My node id                                                        0
 DBCSR| MPI: Number of nodes                                                  24
 DBCSR| OMP: Current number of threads                                         1
 DBCSR| OMP: Max number of threads                                             1
 DBCSR| Split modifier for TAS multiplication algorithm                  1.0E+00


  **** **** ******  **  PROGRAM STARTED AT               2021-09-10 20:24:33.280
 ***** ** ***  *** **   PROGRAM STARTED ON                                 node4
 **    ****   ******    PROGRAM STARTED BY                               lujunbo
 ***** **    ** ** **   PROGRAM PROCESS ID                                366762
  **** **  *******  **  PROGRAM STARTED IN /home/lujunbo/WORK/deepmd/co2/cutoff_
                                           400/cp2k_md

 CP2K| version string:                                          CP2K version 8.2
 CP2K| source code revision number:                                  git:310b7ab
 CP2K| cp2kflags: omp libint fftw3 libxc elpa parallel mpi3 scalapack xsmm plume
 CP2K|            d2 spglib mkl libvori libbqb
 CP2K| is freely available from                            https://www.cp2k.org/
 CP2K| Program compiled at                          Tue Jun  1 15:18:23 CST 2021
 CP2K| Program compiled on                                                   mgr
 CP2K| Program compiled for                                                local
 CP2K| Data directory path                       /home/lujunbo/bin/cp2k-8.2/data
 CP2K| Input file name                                             cp2k-aimd.inp

 GLOBAL| Force Environment number                                              1
 GLOBAL| Basis set file name            /home/lujunbo/bin/cp2k-8.2/data/BASIS_MO
 GLOBAL| Potential file name            /home/lujunbo/bin/cp2k-8.2/data/POTENTIA
 GLOBAL| MM Potential file name                                     MM_POTENTIAL
 GLOBAL| Coordinate file name                                      __STD_INPUT__
 GLOBAL| Method name                                                        CP2K
 GLOBAL| Project name                                                       test
 GLOBAL| Run type                                                             MD
 GLOBAL| FFT library                                                       FFTW3
 GLOBAL| Diagonalization library                                            ELPA
 GLOBAL| Minimum number of eigenvectors for ELPA usage                        16
 GLOBAL| Orthonormality check for eigenvectors                          DISABLED
 GLOBAL| Matrix multiplication library                                    SCALAP
 GLOBAL| All-to-all communication in single precision                          F
 GLOBAL| FFTs using library dependent lengths                                  F
 GLOBAL| Grid backend                                                       AUTO
 GLOBAL| Global print level                                                  LOW
 GLOBAL| MPI I/O enabled                                                       T
 GLOBAL| Total number of message passing processes                            24
 GLOBAL| Number of threads for this process                                    1
 GLOBAL| This output is from process                                           0
 GLOBAL| CPU model name             Intel(R) Xeon(R) Platinum 9242 CPU @ 2.30GHz
 GLOBAL| CPUID                                                              1003

 MEMORY| system memory details [Kb]
 MEMORY|                        rank 0           min           max       average
 MEMORY| MemTotal            394609396     394609396     394609396     394609396
 MEMORY| MemFree             237674572     237674572     237674572     237674572
 MEMORY| Buffers                198472        198472        198472        198472
 MEMORY| Cached              102656544     102656544     102656544     102656544
 MEMORY| Slab                  1360588       1360588       1360588       1360588
 MEMORY| SReclaimable           729800        729800        729800        729800
 MEMORY| MemLikelyFree       341259388     341259388     341259388     341259388


 GENERATE|  Preliminary Number of Bonds generated:                             0
 GENERATE|  Achieved consistency in connectivity generation.

 *******************************************************************************
 *******************************************************************************
 **                                                                           **
 **     #####                         ##              ##                      **
 **    ##   ##            ##          ##              ##                      **
 **   ##     ##                       ##            ######                    **
 **   ##     ##  ##   ##  ##   #####  ##  ##   ####   ##    #####    #####    **
 **   ##     ##  ##   ##  ##  ##      ## ##   ##      ##   ##   ##  ##   ##   **
 **   ##  ## ##  ##   ##  ##  ##      ####     ###    ##   ######   ######    **
 **    ##  ###   ##   ##  ##  ##      ## ##      ##   ##   ##       ##        **
 **     #######   #####   ##   #####  ##  ##  ####    ##    #####   ##        **
 **           ##                                                    ##        **
 **                                                                           **
 **                                                ... make the atoms dance   **
 **                                                                           **
 **            Copyright (C) by CP2K developers group (2000-2021)             **
 **                      J. Chem. Phys. 152, 194103 (2020)                    **
 **                                                                           **
 *******************************************************************************


 TOTAL NUMBERS AND MAXIMUM NUMBERS

  Total number of            - Atomic kinds:                                   2
                             - Atoms:                                          3
                             - Shell sets:                                     3
                             - Shells:                                        15
                             - Primitive Cartesian functions:                 21
                             - Cartesian basis functions:                     42
                             - Spherical basis functions:                     39

  Maximum angular momentum of- Orbital basis functions:                        2
                             - Local part of the GTH pseudopotential:          2
                             - Non-local part of the GTH pseudopotential:      0


 SCF PARAMETERS         Density guess:                                   RESTART
                        --------------------------------------------------------
                        max_scf:                                             100
                        max_scf_history:                                       0
                        max_diis:                                              4
                        --------------------------------------------------------
                        eps_scf:                                        1.00E-06
                        eps_scf_history:                                0.00E+00
                        eps_diis:                                       1.00E-01
                        eps_eigval:                                     1.00E-05
                        --------------------------------------------------------
                        level_shift [a.u.]:                                 0.00
                        --------------------------------------------------------
                        Outer loop SCF in use 
                        No variables optimised in outer loop
                        eps_scf                                         1.00E-06
                        max_scf                                                6
                        No outer loop optimization
                        step_size                                       5.00E-01

 MD_PAR| Molecular dynamics protocol (MD input parameters)
 MD_PAR| Ensemble type                                                       NVT
 MD_PAR| Number of time steps                                               1000
 MD_PAR| Time step [fs]                                                 0.500000
 MD_PAR| Temperature [K]                                               50.000000
 MD_PAR| Temperature tolerance [K]                                      0.000000
 MD_PAR| Print MD information every                                    1 step(s)
 MD_PAR| File type   Print frequency [steps]                          File names
 MD_PAR| Coordinates          1                                   test-pos-1.xyz
 MD_PAR| Velocities           1                                   test-vel-1.xyz
 MD_PAR| Energies             1                                      test-1.ener
 MD_PAR| Dump                20                                   test-1.restart

 ROT| Rotational analysis information
 ROT| Principal axes and moments of inertia [a.u.]
 ROT|                           1                   2                   3
 ROT| Eigenvalues      0.00000000000E+00   2.80289939404E+05   2.80289939404E+05
 ROT|      x              0.000000000000     -0.000000000000      1.000000000000
 ROT|      y              0.000000000000      1.000000000000      0.000000000000
 ROT|      z              1.000000000000      0.000000000000      0.000000000000
 ROT| Number of rotovibrational vectors                                        5
 ROT| Linear molecule detected

 DOF| Calculation of degrees of freedom
 DOF| Number of atoms                                                          3
 DOF| Number of intramolecular constraints                                     0
 DOF| Number of intermolecular constraints                                     0
 DOF| Invariants (translations + rotations)                                    3
 DOF| Degrees of freedom                                                       6

 DOF| Restraints information
 DOF| Number of intramolecular restraints                                      0
 DOF| Number of intermolecular restraints                                      0

 THERMOSTAT| Thermostat information for PARTICLES
 THERMOSTAT| Type of thermostat                               Nose-Hoover-Chains
 THERMOSTAT| Nose-Hoover-Chain length                                          3
 THERMOSTAT| Nose-Hoover-Chain time constant [fs]                     100.000000
 THERMOSTAT| Order of Yoshida integrator                                       3
 THERMOSTAT| Number of multiple time steps                                     2
 THERMOSTAT| Initial potential energy                         0.000000000000E+00
 THERMOSTAT| Initial kinetic energy                           0.791703835822E-04
 THERMOSTAT| End of thermostat information for PARTICLES

 MD_VEL| Velocities initialization
 MD_VEL| Initial temperature [K]                                       50.000000
 MD_VEL| COM velocity            -0.0000000000    -0.0000000000    -0.0000000000

 Number of electrons:                                                         16
 Number of occupied orbitals:                                                  8
 Number of molecular orbitals:                                                 8

 Number of orbital functions:                                                 39
 Number of independent orbital functions:                                     39

 Extrapolation method: initial_guess

 *** WARNING in qs_initial_guess.F:309 :: User requested to restart the    ***
 *** wavefunction from the file named: ./cp2k-RESTART.wfn. This file does  ***
 *** not exist. Please check the existence of the file or change properly  ***
 *** the value of the keyword WFN_RESTART_FILE_NAME. Calculation continues ***
 *** using ATOMIC GUESS.                                                   ***



 SCF WAVEFUNCTION OPTIMIZATION

  ----------------------------------- OT ---------------------------------------
  Minimizer      : CG                  : conjugate gradient
  Preconditioner : FULL_ALL            : diagonalization, state selective
  Precond_solver : DEFAULT
  Line search    : 2PNT                : 2 energies, one gradient
  stepsize       :    0.15000000                  energy_gap     :    0.08000000
  eps_taylor     :   0.10000E-15                  max_taylor     :             4
  ----------------------------------- OT ---------------------------------------

  Step     Update method      Time    Convergence         Total energy    Change
  ------------------------------------------------------------------------------
     1 OT CG       0.15E+00    0.2     0.26656264       -35.9704859133 -3.60E+01
     2 OT LS       0.78E-01    0.1                      -36.0946131827
     3 OT CG       0.78E-01    0.2     0.43484533       -36.3366673062 -3.66E-01
     4 OT LS       0.36E-01    0.1                      -36.1236111640
     5 OT CG       0.36E-01    0.2     0.22054917       -36.5831964055 -2.47E-01
     6 OT LS       0.10E+00    0.1                      -36.7929832965
     7 OT CG       0.10E+00    0.2     0.21447552       -36.9384822242 -3.55E-01
     8 OT LS       0.70E-01    0.1                      -37.3442293096
     9 OT CG       0.70E-01    0.2     0.16892479       -37.4486694179 -5.10E-01
    10 OT LS       0.41E-01    0.1                      -37.5343042735
    11 OT CG       0.41E-01    0.2     0.09515923       -37.6403325406 -1.92E-01
    12 OT LS       0.52E-01    0.1                      -37.7101767160
    13 OT CG       0.52E-01    0.2     0.04589834       -37.7136277072 -7.33E-02
    14 OT LS       0.12E+00    0.1                      -37.7400623880
    15 OT CG       0.12E+00    0.2     0.03227015       -37.7512405892 -3.76E-02
    16 OT LS       0.49E-01    0.1                      -37.7438950235
    17 OT CG       0.49E-01    0.2     0.01554505       -37.7588656077 -7.63E-03
    18 OT LS       0.90E-01    0.1                      -37.7615209070
    19 OT CG       0.90E-01    0.2     0.00803357       -37.7622190882 -3.35E-03
    20 OT LS       0.11E+00    0.1                      -37.7632488379
    21 OT CG       0.11E+00    0.2     0.00565309       -37.7632723332 -1.05E-03
    22 OT LS       0.64E-01    0.1                      -37.7634546176
    23 OT CG       0.64E-01    0.2     0.00266856       -37.7635910764 -3.19E-04
    24 OT LS       0.86E-01    0.1                      -37.7636803840
    25 OT CG       0.86E-01    0.2     0.00181787       -37.7636864941 -9.54E-05
    26 OT LS       0.64E-01    0.1                      -37.7637156313
    27 OT CG       0.64E-01    0.2     0.00106640       -37.7637194740 -3.30E-05
    28 OT LS       0.90E-01    0.1                      -37.7637340812
    29 OT CG       0.90E-01    0.2     0.00053079       -37.7637353672 -1.59E-05
    30 OT LS       0.72E-01    0.1                      -37.7637383405
    31 OT CG       0.72E-01    0.2     0.00032319       -37.7637385299 -3.16E-06
    32 OT LS       0.97E-01    0.1                      -37.7637400032
    33 OT CG       0.97E-01    0.2     0.00016249       -37.7637401066 -1.58E-06
    34 OT LS       0.69E-01    0.1                      -37.7637403440
    35 OT CG       0.69E-01    0.2     0.00010880       -37.7637403905 -2.84E-07
    36 OT LS       0.71E-01    0.1                      -37.7637405207
    37 OT CG       0.71E-01    0.2     0.00006050       -37.7637405208 -1.30E-07
    38 OT LS       0.87E-01    0.1                      -37.7637405687
    39 OT CG       0.87E-01    0.2     0.00003228       -37.7637405705 -4.98E-08
    40 OT LS       0.61E-01    0.1                      -37.7637405786
    41 OT CG       0.61E-01    0.2     0.00001643       -37.7637405805 -9.92E-09
    42 OT LS       0.11E+00    0.1                      -37.7637405842
    43 OT CG       0.11E+00    0.2     0.00000931       -37.7637405853 -4.82E-09
    44 OT LS       0.67E-01    0.1                      -37.7637405857
    45 OT CG       0.67E-01    0.2     0.00000630       -37.7637405862 -9.07E-10
    46 OT LS       0.68E-01    0.1                      -37.7637405866
    47 OT CG       0.68E-01    0.2     0.00000278       -37.7637405866 -4.19E-10
    48 OT LS       0.91E-01    0.1                      -37.7637405867
    49 OT CG       0.91E-01    0.2     0.00000193       -37.7637405867 -1.10E-10
    50 OT LS       0.67E-01    0.1                      -37.7637405868
    51 OT CG       0.67E-01    0.2     0.00000085       -37.7637405868 -3.90E-11

  *** SCF run converged in    51 steps ***


  Electronic density on regular grids:        -15.9999999954        0.0000000046
  Core density on regular grids:               15.9999999995       -0.0000000005
  Total charge density on r-space grids:        0.0000000040
  Total charge density g-space grids:           0.0000000040

  Overlap energy of the core charge distribution:               0.00000333878879
  Self energy of the core charge distribution:                -96.38742208476296
  Core Hamiltonian energy:                                     27.76353451515147
  Hartree energy:                                              39.53901533603043
  Exchange-correlation energy:                                 -8.67887169197575

  Total energy:                                               -37.76374058676803

  outer SCF iter =    1 RMS gradient =   0.85E-06 energy =        -37.7637405868
  outer SCF loop converged in   1 iterations or   51 steps


 ENERGY| Total FORCE_EVAL ( QS ) energy [a.u.]:              -37.763740586778184

 MD_INI| MD initialization
 MD_INI| Potential energy [hartree]                          -0.377637405868E+02
 MD_INI| Kinetic energy [hartree]                             0.475022301493E-03
 MD_INI| Temperature [K]                                               50.000000
 MD_INI| Pressure [bar]                                       2.093943718595E+03
 MD_INI| Cell volume [bohr^3]                                 6.748334583090E+03
 MD_INI| Cell volume [ang^3]                                  1.000000000000E+03
 MD_INI| Cell lengths [bohr]      1.88972613E+01  1.88972613E+01  1.88972613E+01
 MD_INI| Cell lengths [ang]       1.00000000E+01  1.00000000E+01  1.00000000E+01
 MD_INI| Cell angles [deg]        9.00000000E+01  9.00000000E+01  9.00000000E+01

 Number of electrons:                                                         16
 Number of occupied orbitals:                                                  8
 Number of molecular orbitals:                                                 8

 Number of orbital functions:                                                 39
 Number of independent orbital functions:                                     39

 Extrapolation method: ASPC


 SCF WAVEFUNCTION OPTIMIZATION

  ----------------------------------- OT ---------------------------------------
  Minimizer      : CG                  : conjugate gradient
  Preconditioner : FULL_ALL            : diagonalization, state selective
  Precond_solver : DEFAULT
  Line search    : 2PNT                : 2 energies, one gradient
  stepsize       :    0.15000000                  energy_gap     :    0.08000000
  eps_taylor     :   0.10000E-15                  max_taylor     :             4
  ----------------------------------- OT ---------------------------------------

  Step     Update method      Time    Convergence         Total energy    Change
  ------------------------------------------------------------------------------
     1 OT CG       0.15E+00    0.2     0.00028963       -37.7638422807 -3.78E+01
     2 OT LS       0.20E+00    0.1                      -37.7638447459
     3 OT CG       0.20E+00    0.2     0.00013469       -37.7638449186 -2.64E-06
     4 OT LS       0.80E-01    0.1                      -37.7638446178
     5 OT CG       0.80E-01    0.2     0.00005096       -37.7638451444 -2.26E-07
     6 OT LS       0.11E+00    0.1                      -37.7638451855
     7 OT CG       0.11E+00    0.2     0.00001423       -37.7638451888 -4.44E-08
     8 OT LS       0.88E-01    0.1                      -37.7638451914
     9 OT CG       0.88E-01    0.2     0.00000258       -37.7638451915 -2.78E-09
    10 OT LS       0.20E+00    0.1                      -37.7638451917
    11 OT CG       0.20E+00    0.2     0.00000036       -37.7638451917 -2.03E-10

  *** SCF run converged in    11 steps ***


  Electronic density on regular grids:        -15.9999999954        0.0000000046
  Core density on regular grids:               15.9999999995       -0.0000000005
  Total charge density on r-space grids:        0.0000000041
  Total charge density g-space grids:           0.0000000041

  Overlap energy of the core charge distribution:               0.00000326463339
  Self energy of the core charge distribution:                -96.38742208476296
  Core Hamiltonian energy:                                     27.75668813338966
  Hartree energy:                                              39.54404982071630
  Exchange-correlation energy:                                 -8.67716432570986

  Total energy:                                               -37.76384519173347

  outer SCF iter =    1 RMS gradient =   0.36E-06 energy =        -37.7638451917
  outer SCF loop converged in   1 iterations or   11 steps


 ENERGY| Total FORCE_EVAL ( QS ) energy [a.u.]:              -37.763845191737147

 MD| ***************************************************************************
 MD| Step number                                                               1
 MD| Time [fs]                                                          0.500000
 MD| Conserved quantity [hartree]                            -0.377631868142E+02
 MD| ---------------------------------------------------------------------------
 MD|                                          Instantaneous             Averages
 MD| CPU time per MD step [s]                     10.519815            10.519815
 MD| Energy drift per atom [K]          -0.442239733848E-01   0.000000000000E+00
 MD| Potential energy [hartree]         -0.377638451917E+02  -0.377638451917E+02
 MD| Kinetic energy [hartree]            0.577118942938E-03   0.577118942938E-03
 MD| Temperature [K]                              60.746510            60.746510
 MD| Pressure [bar]                      1.973153302018E+03   1.973153302018E+03
 MD| ***************************************************************************

 Number of electrons:                                                         16
 Number of occupied orbitals:                                                  8
 Number of molecular orbitals:                                                 8

 Number of orbital functions:                                                 39
 Number of independent orbital functions:                                     39

 Extrapolation method: ASPC


 SCF WAVEFUNCTION OPTIMIZATION

  ----------------------------------- OT ---------------------------------------
  Minimizer      : CG                  : conjugate gradient
  Preconditioner : FULL_ALL            : diagonalization, state selective
  Precond_solver : DEFAULT
  Line search    : 2PNT                : 2 energies, one gradient
  stepsize       :    0.15000000                  energy_gap     :    0.08000000
  eps_taylor     :   0.10000E-15                  max_taylor     :             4
  ----------------------------------- OT ---------------------------------------

  Step     Update method      Time    Convergence         Total energy    Change
  ------------------------------------------------------------------------------
     1 OT CG       0.15E+00    0.2     0.00005159       -37.7639674734 -3.78E+01
     2 OT LS       0.18E+00    0.1                      -37.7639675466
     3 OT CG       0.18E+00    0.2     0.00001947       -37.7639675489 -7.55E-08
     4 OT LS       0.12E+00    0.1                      -37.7639675535
     5 OT CG       0.12E+00    0.2     0.00000879       -37.7639675558 -6.84E-09
     6 OT LS       0.98E-01    0.1                      -37.7639675569
     7 OT CG       0.98E-01    0.2     0.00000279       -37.7639675569 -1.18E-09
     8 OT LS       0.71E-01    0.1                      -37.7639675570
     9 OT CG       0.71E-01    0.2     0.00000044       -37.7639675570 -8.65E-11

  *** SCF run converged in     9 steps ***


  Electronic density on regular grids:        -15.9999999954        0.0000000046
  Core density on regular grids:               15.9999999995       -0.0000000005
  Total charge density on r-space grids:        0.0000000041
  Total charge density g-space grids:           0.0000000041

  Overlap energy of the core charge distribution:               0.00000317306702
  Self energy of the core charge distribution:                -96.38742208476296
  Core Hamiltonian energy:                                     27.74804048395841
  Hartree energy:                                              39.55041520176960
  Exchange-correlation energy:                                 -8.67500433106828

  Total energy:                                               -37.76396755703622

  outer SCF iter =    1 RMS gradient =   0.44E-06 energy =        -37.7639675570
  outer SCF loop converged in   1 iterations or    9 steps


 ENERGY| Total FORCE_EVAL ( QS ) energy [a.u.]:              -37.763967557039862

 MD| ***************************************************************************
 MD| Step number                                                               2
 MD| Time [fs]                                                          1.000000
 MD| Conserved quantity [hartree]                            -0.377631872798E+02
 MD| ---------------------------------------------------------------------------
 MD|                                          Instantaneous             Averages
 MD| CPU time per MD step [s]                      1.875403             6.197609
 MD| Energy drift per atom [K]          -0.932270220591E-01  -0.466135110296E-01
 MD| Potential energy [hartree]         -0.377639675570E+02  -0.377639063744E+02
 MD| Kinetic energy [hartree]            0.696480910286E-03   0.636799926612E-03
 MD| Temperature [K]                              73.310338            67.028424
 MD| Pressure [bar]                      1.820502561606E+03   1.896827931812E+03
 MD| ***************************************************************************

 Number of electrons:                                                         16
 Number of occupied orbitals:                                                  8
 Number of molecular orbitals:                                                 8

 Number of orbital functions:                                                 39
 Number of independent orbital functions:                                     39

 Extrapolation method: ASPC


 SCF WAVEFUNCTION OPTIMIZATION

  ----------------------------------- OT ---------------------------------------
  Minimizer      : CG                  : conjugate gradient
  Preconditioner : FULL_ALL            : diagonalization, state selective
  Precond_solver : DEFAULT
  Line search    : 2PNT                : 2 energies, one gradient
  stepsize       :    0.15000000                  energy_gap     :    0.08000000
  eps_taylor     :   0.10000E-15                  max_taylor     :             4
  ----------------------------------- OT ---------------------------------------

  Step     Update method      Time    Convergence         Total energy    Change
  ------------------------------------------------------------------------------
     1 OT CG       0.15E+00    0.2     0.00002283       -37.7641002909 -3.78E+01
     2 OT LS       0.18E+00    0.1                      -37.7641003050
     3 OT CG       0.18E+00    0.2     0.00001039       -37.7641003054 -1.45E-08
     4 OT LS       0.88E-01    0.1                      -37.7641003053
     5 OT CG       0.88E-01    0.2     0.00000467       -37.7641003068 -1.49E-09
     6 OT LS       0.11E+00    0.1                      -37.7641003072
     7 OT CG       0.11E+00    0.2     0.00000139       -37.7641003072 -3.73E-10
     8 OT LS       0.85E-01    0.1                      -37.7641003072
     9 OT CG       0.85E-01    0.2     0.00000022       -37.7641003072 -2.56E-11

  *** SCF run converged in     9 steps ***


  Electronic density on regular grids:        -15.9999999954        0.0000000046
  Core density on regular grids:               15.9999999995       -0.0000000005
  Total charge density on r-space grids:        0.0000000041
  Total charge density g-space grids:           0.0000000041

  Overlap energy of the core charge distribution:               0.00000306693414
  Self energy of the core charge distribution:                -96.38742208476296
  Core Hamiltonian energy:                                     27.73774401646330
  Hartree energy:                                              39.55800397551196
  Exchange-correlation energy:                                 -8.67242928139289

  Total energy:                                               -37.76410030724645

  outer SCF iter =    1 RMS gradient =   0.22E-06 energy =        -37.7641003072
  outer SCF loop converged in   1 iterations or    9 steps


 ENERGY| Total FORCE_EVAL ( QS ) energy [a.u.]:              -37.764100307247503

 MD| ***************************************************************************
 MD| Step number                                                               3
 MD| Time [fs]                                                          1.500000
 MD| Conserved quantity [hartree]                            -0.377631877682E+02
 MD| ---------------------------------------------------------------------------
 MD|                                          Instantaneous             Averages
 MD| CPU time per MD step [s]                      1.784941             4.726720
 MD| Energy drift per atom [K]          -0.144633167515E+00  -0.792867298579E-01
 MD| Potential energy [hartree]         -0.377641003072E+02  -0.377639710187E+02
 MD| Kinetic energy [hartree]            0.825688122688E-03   0.699762658637E-03
 MD| Temperature [K]                              86.910459            73.655769
 MD| Pressure [bar]                      1.638983826848E+03   1.810879896824E+03
 MD| ***************************************************************************

 Number of electrons:                                                         16
 Number of occupied orbitals:                                                  8
 Number of molecular orbitals:                                                 8

 Number of orbital functions:                                                 39
 Number of independent orbital functions:                                     39

 Extrapolation method: ASPC


 SCF WAVEFUNCTION OPTIMIZATION

  ----------------------------------- OT ---------------------------------------
  Minimizer      : CG                  : conjugate gradient
  Preconditioner : FULL_ALL            : diagonalization, state selective
  Precond_solver : DEFAULT
  Line search    : 2PNT                : 2 energies, one gradient
  stepsize       :    0.15000000                  energy_gap     :    0.08000000
  eps_taylor     :   0.10000E-15                  max_taylor     :             4
  ----------------------------------- OT ---------------------------------------

  Step     Update method      Time    Convergence         Total energy    Change
  ------------------------------------------------------------------------------
     1 OT CG       0.15E+00    0.2     0.00001649       -37.7642355931 -3.78E+01
     2 OT LS       0.17E+00    0.1                      -37.7642356003
     3 OT CG       0.17E+00    0.2     0.00000827       -37.7642356005 -7.40E-09
     4 OT LS       0.82E-01    0.1                      -37.7642356002
     5 OT CG       0.82E-01    0.2     0.00000328       -37.7642356014 -8.73E-10
     6 OT LS       0.12E+00    0.1                      -37.7642356015
     7 OT CG       0.12E+00    0.2     0.00000101       -37.7642356016 -1.98E-10
     8 OT LS       0.88E-01    0.1                      -37.7642356016
     9 OT CG       0.88E-01    0.2     0.00000018       -37.7642356016 -1.41E-11

  *** SCF run converged in     9 steps ***


  Electronic density on regular grids:        -15.9999999954        0.0000000046
  Core density on regular grids:               15.9999999995       -0.0000000005
  Total charge density on r-space grids:        0.0000000041
  Total charge density g-space grids:           0.0000000041

  Overlap energy of the core charge distribution:               0.00000294931327
  Self energy of the core charge distribution:                -96.38742208476296
  Core Hamiltonian energy:                                     27.72597959732561
  Hartree energy:                                              39.56668693031013
  Exchange-correlation energy:                                 -8.66948299375648

  Total energy:                                               -37.76423560157043

  outer SCF iter =    1 RMS gradient =   0.18E-06 energy =        -37.7642356016
  outer SCF loop converged in   1 iterations or    9 steps


 ENERGY| Total FORCE_EVAL ( QS ) energy [a.u.]:              -37.764235601571087

 MD| ***************************************************************************
 MD| Step number                                                               4
 MD| Time [fs]                                                          2.000000
 MD| Conserved quantity [hartree]                            -0.377631882812E+02
 MD| ---------------------------------------------------------------------------
 MD|                                          Instantaneous             Averages
 MD| CPU time per MD step [s]                      1.707595             3.971939
 MD| Energy drift per atom [K]          -0.198628679881E+00  -0.109122217364E+00
 MD| Potential energy [hartree]         -0.377642356016E+02  -0.377640371644E+02
 MD| Kinetic energy [hartree]            0.956855139014E-03   0.764035778732E-03
 MD| Temperature [K]                             100.716865            80.421043
 MD| Pressure [bar]                      1.431742375203E+03   1.716095516418E+03
 MD| ***************************************************************************

 Number of electrons:                                                         16
 Number of occupied orbitals:                                                  8
 Number of molecular orbitals:                                                 8

 Number of orbital functions:                                                 39
 Number of independent orbital functions:                                     39

 Extrapolation method: ASPC


 SCF WAVEFUNCTION OPTIMIZATION

  ----------------------------------- OT ---------------------------------------
  Minimizer      : CG                  : conjugate gradient
  Preconditioner : FULL_ALL            : diagonalization, state selective
  Precond_solver : DEFAULT
  Line search    : 2PNT                : 2 energies, one gradient
  stepsize       :    0.15000000                  energy_gap     :    0.08000000
  eps_taylor     :   0.10000E-15                  max_taylor     :             4
  ----------------------------------- OT ---------------------------------------

  Step     Update method      Time    Convergence         Total energy    Change
  ------------------------------------------------------------------------------
     1 OT CG       0.15E+00    0.2     0.00001324       -37.7643653684 -3.78E+01
     2 OT LS       0.17E+00    0.1                      -37.7643653730
     3 OT CG       0.17E+00    0.2     0.00000749       -37.7643653730 -4.63E-09
     4 OT LS       0.78E-01    0.1                      -37.7643653728
     5 OT CG       0.78E-01    0.2     0.00000258       -37.7643653737 -6.84E-10
     6 OT LS       0.13E+00    0.1                      -37.7643653738
     7 OT CG       0.13E+00    0.2     0.00000076       -37.7643653738 -1.33E-10

  *** SCF run converged in     7 steps ***


  Electronic density on regular grids:        -15.9999999953        0.0000000047
  Core density on regular grids:               15.9999999994       -0.0000000006
  Total charge density on r-space grids:        0.0000000042
  Total charge density g-space grids:           0.0000000042

  Overlap energy of the core charge distribution:               0.00000282338749
  Self energy of the core charge distribution:                -96.38742208476296
  Core Hamiltonian energy:                                     27.71295024238202
  Hartree energy:                                              39.57631859646704
  Exchange-correlation energy:                                 -8.66621495130436

  Total energy:                                               -37.76436537383077

  outer SCF iter =    1 RMS gradient =   0.76E-06 energy =        -37.7643653738
  outer SCF loop converged in   1 iterations or    7 steps


 ENERGY| Total FORCE_EVAL ( QS ) energy [a.u.]:              -37.764365373837414

 MD| ***************************************************************************
 MD| Step number                                                               5
 MD| Time [fs]                                                          2.500000
 MD| Conserved quantity [hartree]                            -0.377631887737E+02
 MD| ---------------------------------------------------------------------------
 MD|                                          Instantaneous             Averages
 MD| CPU time per MD step [s]                      1.418168             3.461184
 MD| Energy drift per atom [K]          -0.250473288153E+00  -0.137392431522E+00
 MD| Potential energy [hartree]         -0.377643653738E+02  -0.377641028063E+02
 MD| Kinetic energy [hartree]            0.108194446106E-02   0.827617515198E-03
 MD| Temperature [K]                             113.883544            87.113543
 MD| Pressure [bar]                      1.202378365085E+03   1.613352086152E+03
 MD| ***************************************************************************

 Number of electrons:                                                         16
 Number of occupied orbitals:                                                  8
 Number of molecular orbitals:                                                 8

 Number of orbital functions:                                                 39
 Number of independent orbital functions:                                     39

 Extrapolation method: ASPC


 SCF WAVEFUNCTION OPTIMIZATION

  ----------------------------------- OT ---------------------------------------
  Minimizer      : CG                  : conjugate gradient
  Preconditioner : FULL_ALL            : diagonalization, state selective
  Precond_solver : DEFAULT
  Line search    : 2PNT                : 2 energies, one gradient
  stepsize       :    0.15000000                  energy_gap     :    0.08000000
  eps_taylor     :   0.10000E-15                  max_taylor     :             4
  ----------------------------------- OT ---------------------------------------

  Step     Update method      Time    Convergence         Total energy    Change
  ------------------------------------------------------------------------------
     1 OT CG       0.15E+00    0.2     0.00001162       -37.7644818296 -3.78E+01
     2 OT LS       0.16E+00    0.1                      -37.7644818330
     3 OT CG       0.16E+00    0.2     0.00000721       -37.7644818331 -3.45E-09
     4 OT LS       0.76E-01    0.1                      -37.7644818328
     5 OT CG       0.76E-01    0.2     0.00000207       -37.7644818337 -6.16E-10
     6 OT LS       0.15E+00    0.1                      -37.7644818337
     7 OT CG       0.15E+00    0.2     0.00000030       -37.7644818338 -9.88E-11

  *** SCF run converged in     7 steps ***


  Electronic density on regular grids:        -15.9999999952        0.0000000048
  Core density on regular grids:               15.9999999994       -0.0000000006
  Total charge density on r-space grids:        0.0000000043
  Total charge density g-space grids:           0.0000000043

  Overlap energy of the core charge distribution:               0.00000269231892
  Self energy of the core charge distribution:                -96.38742208476296
  Core Hamiltonian energy:                                     27.69887134266593
  Hartree energy:                                              39.58674433712480
  Exchange-correlation energy:                                 -8.66267812111781

  Total energy:                                               -37.76448183377114

  outer SCF iter =    1 RMS gradient =   0.30E-06 energy =        -37.7644818338
  outer SCF loop converged in   1 iterations or    7 steps


 ENERGY| Total FORCE_EVAL ( QS ) energy [a.u.]:              -37.764481833772820

 MD| ***************************************************************************
 MD| Step number                                                               6
 MD| Time [fs]                                                          3.000000
 MD| Conserved quantity [hartree]                            -0.377631892237E+02
 MD| ---------------------------------------------------------------------------
 MD|                                          Instantaneous             Averages
 MD| CPU time per MD step [s]                      1.378391             3.114052
 MD| Energy drift per atom [K]          -0.297844560050E+00  -0.164134452943E+00
 MD| Potential energy [hartree]         -0.377644818338E+02  -0.377641659775E+02
 MD| Kinetic energy [hartree]            0.119320032894E-02   0.888547984155E-03
 MD| Temperature [K]                             125.594138            93.526976
 MD| Pressure [bar]                      9.547019778427E+02   1.503577068100E+03
 MD| ***************************************************************************

 Number of electrons:                                                         16
 Number of occupied orbitals:                                                  8
 Number of molecular orbitals:                                                 8

 Number of orbital functions:                                                 39
 Number of independent orbital functions:                                     39

 Extrapolation method: ASPC


 SCF WAVEFUNCTION OPTIMIZATION

  ----------------------------------- OT ---------------------------------------
  Minimizer      : CG                  : conjugate gradient
  Preconditioner : FULL_ALL            : diagonalization, state selective
  Precond_solver : DEFAULT
  Line search    : 2PNT                : 2 energies, one gradient
  stepsize       :    0.15000000                  energy_gap     :    0.08000000
  eps_taylor     :   0.10000E-15                  max_taylor     :             4
  ----------------------------------- OT ---------------------------------------

  Step     Update method      Time    Convergence         Total energy    Change
  ------------------------------------------------------------------------------
     1 OT CG       0.15E+00    0.2     0.00000989       -37.7645778998 -3.78E+01
     2 OT LS       0.16E+00    0.1                      -37.7645779023
     3 OT CG       0.16E+00    0.2     0.00000654       -37.7645779023 -2.49E-09
     4 OT LS       0.78E-01    0.1                      -37.7645779022
     5 OT CG       0.78E-01    0.2     0.00000166       -37.7645779028 -5.24E-10
     6 OT LS       0.12E+00    0.1                      -37.7645779029
     7 OT CG       0.12E+00    0.2     0.00000063       -37.7645779029 -5.18E-11

  *** SCF run converged in     7 steps ***


  Electronic density on regular grids:        -15.9999999950        0.0000000050
  Core density on regular grids:               15.9999999994       -0.0000000006
  Total charge density on r-space grids:        0.0000000045
  Total charge density g-space grids:           0.0000000045

  Overlap energy of the core charge distribution:               0.00000255913081
  Self energy of the core charge distribution:                -96.38742208476296
  Core Hamiltonian energy:                                     27.68398195455634
  Hartree energy:                                              39.59779066732746
  Exchange-correlation energy:                                 -8.65893099913973

  Total energy:                                               -37.76457790288810

  outer SCF iter =    1 RMS gradient =   0.63E-06 energy =        -37.7645779029
  outer SCF loop converged in   1 iterations or    7 steps


 ENERGY| Total FORCE_EVAL ( QS ) energy [a.u.]:              -37.764577902894246

 MD| ***************************************************************************
 MD| Step number                                                               7
 MD| Time [fs]                                                          3.500000
 MD| Conserved quantity [hartree]                            -0.377631896044E+02
 MD| ---------------------------------------------------------------------------
 MD|                                          Instantaneous             Averages
 MD| CPU time per MD step [s]                      1.437618             2.874562
 MD| Energy drift per atom [K]          -0.337912775308E+00  -0.188959927567E+00
 MD| Potential energy [hartree]         -0.377645779029E+02  -0.377642248240E+02
 MD| Kinetic energy [hartree]            0.128361423807E-02   0.944986020429E-03
 MD| Temperature [K]                             135.110945            99.467543
 MD| Pressure [bar]                      6.931256364361E+02   1.387798292148E+03
 MD| ***************************************************************************

 Number of electrons:                                                         16
 Number of occupied orbitals:                                                  8
 Number of molecular orbitals:                                                 8

 Number of orbital functions:                                                 39
 Number of independent orbital functions:                                     39

 Extrapolation method: ASPC


 SCF WAVEFUNCTION OPTIMIZATION

  ----------------------------------- OT ---------------------------------------
  Minimizer      : CG                  : conjugate gradient
  Preconditioner : FULL_ALL            : diagonalization, state selective
  Precond_solver : DEFAULT
  Line search    : 2PNT                : 2 energies, one gradient
  stepsize       :    0.15000000                  energy_gap     :    0.08000000
  eps_taylor     :   0.10000E-15                  max_taylor     :             4
  ----------------------------------- OT ---------------------------------------

  Step     Update method      Time    Convergence         Total energy    Change
  ------------------------------------------------------------------------------
     1 OT CG       0.15E+00    0.2     0.00000828       -37.7646476215 -3.78E+01
     2 OT LS       0.15E+00    0.1                      -37.7646476231
     3 OT CG       0.15E+00    0.2     0.00000591       -37.7646476231 -1.60E-09
     4 OT LS       0.81E-01    0.1                      -37.7646476232
     5 OT CG       0.81E-01    0.2     0.00000122       -37.7646476235 -4.44E-10
     6 OT LS       0.16E+00    0.1                      -37.7646476235
     7 OT CG       0.16E+00    0.2     0.00000019       -37.7646476235 -3.69E-11

  *** SCF run converged in     7 steps ***


  Electronic density on regular grids:        -15.9999999948        0.0000000052
  Core density on regular grids:               15.9999999994       -0.0000000006
  Total charge density on r-space grids:        0.0000000047
  Total charge density g-space grids:           0.0000000047

  Overlap energy of the core charge distribution:               0.00000242660347
  Self energy of the core charge distribution:                -96.38742208476296
  Core Hamiltonian energy:                                     27.66853023015906
  Hartree energy:                                              39.60927599193560
  Exchange-correlation energy:                                 -8.65503418748012

  Total energy:                                               -37.76464762354495

  outer SCF iter =    1 RMS gradient =   0.19E-06 energy =        -37.7646476235
  outer SCF loop converged in   1 iterations or    7 steps


 ENERGY| Total FORCE_EVAL ( QS ) energy [a.u.]:              -37.764647623545969

 MD| ***************************************************************************
 MD| Step number                                                               8
 MD| Time [fs]                                                          4.000000
 MD| Conserved quantity [hartree]                            -0.377631899001E+02
 MD| ---------------------------------------------------------------------------
 MD|                                          Instantaneous             Averages
 MD| CPU time per MD step [s]                      1.374702             2.687079
 MD| Energy drift per atom [K]          -0.369033062835E+00  -0.211469069475E+00
 MD| Potential energy [hartree]         -0.377646476235E+02  -0.377642776740E+02
 MD| Kinetic energy [hartree]            0.134731875623E-02   0.995277612404E-03
 MD| Temperature [K]                             141.816369           104.761146
 MD| Pressure [bar]                      4.218207082373E+02   1.267051094159E+03
 MD| ***************************************************************************

 Number of electrons:                                                         16
 Number of occupied orbitals:                                                  8
 Number of molecular orbitals:                                                 8

 Number of orbital functions:                                                 39
 Number of independent orbital functions:                                     39

 Extrapolation method: ASPC


 SCF WAVEFUNCTION OPTIMIZATION

  ----------------------------------- OT ---------------------------------------
  Minimizer      : CG                  : conjugate gradient
  Preconditioner : FULL_ALL            : diagonalization, state selective
  Precond_solver : DEFAULT
  Line search    : 2PNT                : 2 energies, one gradient
  stepsize       :    0.15000000                  energy_gap     :    0.08000000
  eps_taylor     :   0.10000E-15                  max_taylor     :             4
  ----------------------------------- OT ---------------------------------------

  Step     Update method      Time    Convergence         Total energy    Change
  ------------------------------------------------------------------------------
     1 OT CG       0.15E+00    0.2     0.00000669       -37.7646864562 -3.78E+01
     2 OT LS       0.15E+00    0.1                      -37.7646864573
     3 OT CG       0.15E+00    0.2     0.00000500       -37.7646864573 -1.08E-09
     4 OT LS       0.80E-01    0.1                      -37.7646864573
     5 OT CG       0.80E-01    0.2     0.00000071       -37.7646864576 -3.13E-10

  *** SCF run converged in     5 steps ***


  Electronic density on regular grids:        -15.9999999945        0.0000000055
  Core density on regular grids:               15.9999999995       -0.0000000005
  Total charge density on r-space grids:        0.0000000049
  Total charge density g-space grids:           0.0000000049

  Overlap energy of the core charge distribution:               0.00000229719826
  Self energy of the core charge distribution:                -96.38742208476296
  Core Hamiltonian energy:                                     27.65274684889478
  Hartree energy:                                              39.62103247350118
  Exchange-correlation energy:                                 -8.65104599242601

  Total energy:                                               -37.76468645759474

  outer SCF iter =    1 RMS gradient =   0.71E-06 energy =        -37.7646864576
  outer SCF loop converged in   1 iterations or    5 steps


 ENERGY| Total FORCE_EVAL ( QS ) energy [a.u.]:              -37.764686457604398

 MD| ***************************************************************************
 MD| Step number                                                               9
 MD| Time [fs]                                                          4.500000
 MD| Conserved quantity [hartree]                            -0.377631900933E+02
 MD| ---------------------------------------------------------------------------
 MD|                                          Instantaneous             Averages
 MD| CPU time per MD step [s]                      1.157445             2.517120
 MD| Energy drift per atom [K]          -0.389369986942E+00  -0.231235838083E+00
 MD| Potential energy [hartree]         -0.377646864576E+02  -0.377643230944E+02
 MD| Kinetic energy [hartree]            0.137989863666E-02   0.103801328177E-02
 MD| Temperature [K]                             145.245669           109.259426
 MD| Pressure [bar]                      1.452052554370E+02   1.142401556524E+03
 MD| ***************************************************************************

 Number of electrons:                                                         16
 Number of occupied orbitals:                                                  8
 Number of molecular orbitals:                                                 8

 Number of orbital functions:                                                 39
 Number of independent orbital functions:                                     39

 Extrapolation method: ASPC


 SCF WAVEFUNCTION OPTIMIZATION

  ----------------------------------- OT ---------------------------------------
  Minimizer      : CG                  : conjugate gradient
  Preconditioner : FULL_ALL            : diagonalization, state selective
  Precond_solver : DEFAULT
  Line search    : 2PNT                : 2 energies, one gradient
  stepsize       :    0.15000000                  energy_gap     :    0.08000000
  eps_taylor     :   0.10000E-15                  max_taylor     :             4
  ----------------------------------- OT ---------------------------------------

  Step     Update method      Time    Convergence         Total energy    Change
  ------------------------------------------------------------------------------
     1 OT CG       0.15E+00    0.2     0.00000586       -37.7646915637 -3.78E+01
     2 OT LS       0.15E+00    0.1                      -37.7646915645
     3 OT CG       0.15E+00    0.2     0.00000465       -37.7646915645 -8.07E-10
     4 OT LS       0.86E-01    0.1                      -37.7646915646
     5 OT CG       0.86E-01    0.2     0.00000058       -37.7646915648 -2.91E-10

  *** SCF run converged in     5 steps ***


  Electronic density on regular grids:        -15.9999999943        0.0000000057
  Core density on regular grids:               15.9999999995       -0.0000000005
  Total charge density on r-space grids:        0.0000000052
  Total charge density g-space grids:           0.0000000052

  Overlap energy of the core charge distribution:               0.00000217300771
  Self energy of the core charge distribution:                -96.38742208476296
  Core Hamiltonian energy:                                     27.63691618298410
  Hartree energy:                                              39.63284660336702
  Exchange-correlation energy:                                 -8.64703443934729

  Total energy:                                               -37.76469156475142

  outer SCF iter =    1 RMS gradient =   0.58E-06 energy =        -37.7646915648
  outer SCF loop converged in   1 iterations or    5 steps


 ENERGY| Total FORCE_EVAL ( QS ) energy [a.u.]:              -37.764691564757427

 MD| ***************************************************************************
 MD| Step number                                                              10
 MD| Time [fs]                                                          5.000000
 MD| Conserved quantity [hartree]                            -0.377631901671E+02
 MD| ---------------------------------------------------------------------------
 MD|                                          Instantaneous             Averages
 MD| CPU time per MD step [s]                      1.081429             2.373551
 MD| Energy drift per atom [K]          -0.397141135387E+00  -0.247826367813E+00
 MD| Potential energy [hartree]         -0.377646915648E+02  -0.377643599414E+02
 MD| Kinetic energy [hartree]            0.137866393169E-02   0.107207834676E-02
 MD| Temperature [K]                             145.115706           112.845054
 MD| Pressure [bar]                     -1.325626971517E+02   1.014905131156E+03
 MD| ***************************************************************************

 Number of electrons:                                                         16
 Number of occupied orbitals:                                                  8
 Number of molecular orbitals:                                                 8

 Number of orbital functions:                                                 39
 Number of independent orbital functions:                                     39

 Extrapolation method: ASPC


 SCF WAVEFUNCTION OPTIMIZATION

  ----------------------------------- OT ---------------------------------------
  Minimizer      : CG                  : conjugate gradient
  Preconditioner : FULL_ALL            : diagonalization, state selective
  Precond_solver : DEFAULT
  Line search    : 2PNT                : 2 energies, one gradient
  stepsize       :    0.15000000                  energy_gap     :    0.08000000
  eps_taylor     :   0.10000E-15                  max_taylor     :             4
  ----------------------------------- OT ---------------------------------------

  Step     Update method      Time    Convergence         Total energy    Change
  ------------------------------------------------------------------------------
     1 OT CG       0.15E+00    0.2     0.00000565       -37.7646620356 -3.78E+01
     2 OT LS       0.17E+00    0.1                      -37.7646620364
     3 OT CG       0.17E+00    0.2     0.00000371       -37.7646620364 -8.34E-10
     4 OT LS       0.76E-01    0.1                      -37.7646620363
     5 OT CG       0.76E-01    0.2     0.00000094       -37.7646620366 -1.64E-10

  *** SCF run converged in     5 steps ***


  Electronic density on regular grids:        -15.9999999940        0.0000000060
  Core density on regular grids:               15.9999999995       -0.0000000005
  Total charge density on r-space grids:        0.0000000055
  Total charge density g-space grids:           0.0000000055

  Overlap energy of the core charge distribution:               0.00000205573348
  Self energy of the core charge distribution:                -96.38742208476296
  Core Hamiltonian energy:                                     27.62123812088648
  Hartree energy:                                              39.64457273911829
  Exchange-correlation energy:                                 -8.64305286755850

  Total energy:                                               -37.76466203658319

  outer SCF iter =    1 RMS gradient =   0.94E-06 energy =        -37.7646620366
  outer SCF loop converged in   1 iterations or    5 steps


 ENERGY| Total FORCE_EVAL ( QS ) energy [a.u.]:              -37.764662036597436

 MD| ***************************************************************************
 MD| Step number                                                              11
 MD| Time [fs]                                                          5.500000
 MD| Conserved quantity [hartree]                            -0.377631901143E+02
 MD| ---------------------------------------------------------------------------
 MD|                                          Instantaneous             Averages
 MD| CPU time per MD step [s]                      1.125990             2.260136
 MD| Energy drift per atom [K]          -0.391582952910E+00  -0.260895148276E+00
 MD| Potential energy [hartree]         -0.377646620366E+02  -0.377643874046E+02
 MD| Kinetic energy [hartree]            0.134286922287E-02   0.109669569913E-02
 MD| Temperature [K]                             141.348019           115.436233
 MD| Pressure [bar]                     -4.072313392400E+02   8.856199974837E+02
 MD| ***************************************************************************

 Number of electrons:                                                         16
 Number of occupied orbitals:                                                  8
 Number of molecular orbitals:                                                 8

 Number of orbital functions:                                                 39
 Number of independent orbital functions:                                     39

 Extrapolation method: ASPC


 SCF WAVEFUNCTION OPTIMIZATION

  ----------------------------------- OT ---------------------------------------
  Minimizer      : CG                  : conjugate gradient
  Preconditioner : FULL_ALL            : diagonalization, state selective
  Precond_solver : DEFAULT
  Line search    : 2PNT                : 2 energies, one gradient
  stepsize       :    0.15000000                  energy_gap     :    0.08000000
  eps_taylor     :   0.10000E-15                  max_taylor     :             4
  ----------------------------------- OT ---------------------------------------

  Step     Update method      Time    Convergence         Total energy    Change
  ------------------------------------------------------------------------------
     1 OT CG       0.15E+00    0.2     0.00000716       -37.7645990213 -3.78E+01
     2 OT LS       0.18E+00    0.1                      -37.7645990227
     3 OT CG       0.18E+00    0.2     0.00000408       -37.7645990228 -1.45E-09
     4 OT LS       0.78E-01    0.1                      -37.7645990226
     5 OT CG       0.78E-01    0.2     0.00000141       -37.7645990230 -2.03E-10
     6 OT LS       0.11E+00    0.1                      -37.7645990230
     7 OT CG       0.11E+00    0.2     0.00000048       -37.7645990230 -3.42E-11

  *** SCF run converged in     7 steps ***


  Electronic density on regular grids:        -15.9999999937        0.0000000063
  Core density on regular grids:               15.9999999995       -0.0000000005
  Total charge density on r-space grids:        0.0000000057
  Total charge density g-space grids:           0.0000000057

  Overlap energy of the core charge distribution:               0.00000194668809
  Self energy of the core charge distribution:                -96.38742208476296
  Core Hamiltonian energy:                                     27.60592902427856
  Hartree energy:                                              39.65604942786524
  Exchange-correlation energy:                                 -8.63915733705888

  Total energy:                                               -37.76459902298994

  outer SCF iter =    1 RMS gradient =   0.48E-06 energy =        -37.7645990230
  outer SCF loop converged in   1 iterations or    7 steps


 ENERGY| Total FORCE_EVAL ( QS ) energy [a.u.]:              -37.764599022993011

 MD| ***************************************************************************
 MD| Step number                                                              12
 MD| Time [fs]                                                          6.000000
 MD| Conserved quantity [hartree]                            -0.377631899323E+02
 MD| ---------------------------------------------------------------------------
 MD|                                          Instantaneous             Averages
 MD| CPU time per MD step [s]                      1.453088             2.192882
 MD| Energy drift per atom [K]          -0.372425899178E+00  -0.270189377518E+00
 MD| Potential energy [hartree]         -0.377645990230E+02  -0.377644050395E+02
 MD| Kinetic energy [hartree]            0.127383621387E-02   0.111145740869E-02
 MD| Temperature [K]                             134.081727           116.990024
 MD| Pressure [bar]                     -6.748283219094E+02   7.555826375343E+02
 MD| ***************************************************************************

 Number of electrons:                                                         16
 Number of occupied orbitals:                                                  8
 Number of molecular orbitals:                                                 8

 Number of orbital functions:                                                 39
 Number of independent orbital functions:                                     39

 Extrapolation method: ASPC


 SCF WAVEFUNCTION OPTIMIZATION

  ----------------------------------- OT ---------------------------------------
  Minimizer      : CG                  : conjugate gradient
  Preconditioner : FULL_ALL            : diagonalization, state selective
  Precond_solver : DEFAULT
  Line search    : 2PNT                : 2 energies, one gradient
  stepsize       :    0.15000000                  energy_gap     :    0.08000000
  eps_taylor     :   0.10000E-15                  max_taylor     :             4
  ----------------------------------- OT ---------------------------------------

  Step     Update method      Time    Convergence         Total energy    Change
  ------------------------------------------------------------------------------
     1 OT CG       0.15E+00    0.2     0.00000867       -37.7645057316 -3.78E+01
     2 OT LS       0.18E+00    0.1                      -37.7645057336
     3 OT CG       0.18E+00    0.2     0.00000305       -37.7645057337 -2.07E-09
     4 OT LS       0.12E+00    0.1                      -37.7645057338
     5 OT CG       0.12E+00    0.2     0.00000149       -37.7645057339 -1.79E-10
     6 OT LS       0.97E-01    0.1                      -37.7645057339
     7 OT CG       0.97E-01    0.2     0.00000043       -37.7645057339 -3.37E-11

  *** SCF run converged in     7 steps ***


  Electronic density on regular grids:        -15.9999999935        0.0000000065
  Core density on regular grids:               15.9999999995       -0.0000000005
  Total charge density on r-space grids:        0.0000000059
  Total charge density g-space grids:           0.0000000059

  Overlap energy of the core charge distribution:               0.00000184681947
  Self energy of the core charge distribution:                -96.38742208476296
  Core Hamiltonian energy:                                     27.59125774535618
  Hartree energy:                                              39.66707009601230
  Exchange-correlation energy:                                 -8.63541333732850

  Total energy:                                               -37.76450573390352

  outer SCF iter =    1 RMS gradient =   0.43E-06 energy =        -37.7645057339
  outer SCF loop converged in   1 iterations or    7 steps


 ENERGY| Total FORCE_EVAL ( QS ) energy [a.u.]:              -37.764505733905040

 MD| ***************************************************************************
 MD| Step number                                                              13
 MD| Time [fs]                                                          6.500000
 MD| Conserved quantity [hartree]                            -0.377631896282E+02
 MD| ---------------------------------------------------------------------------
 MD|                                          Instantaneous             Averages
 MD| CPU time per MD step [s]                      1.409672             2.132635
 MD| Energy drift per atom [K]          -0.340411245633E+00  -0.275591059681E+00
 MD| Potential energy [hartree]         -0.377645057339E+02  -0.377644127852E+02
 MD| Kinetic energy [hartree]            0.117493916084E-02   0.111634062040E-02
 MD| Temperature [K]                             123.672000           117.504022
 MD| Pressure [bar]                     -9.314572547065E+02   6.258103381311E+02
 MD| ***************************************************************************

 Number of electrons:                                                         16
 Number of occupied orbitals:                                                  8
 Number of molecular orbitals:                                                 8

 Number of orbital functions:                                                 39
 Number of independent orbital functions:                                     39

 Extrapolation method: ASPC


 SCF WAVEFUNCTION OPTIMIZATION

  ----------------------------------- OT ---------------------------------------
  Minimizer      : CG                  : conjugate gradient
  Preconditioner : FULL_ALL            : diagonalization, state selective
  Precond_solver : DEFAULT
  Line search    : 2PNT                : 2 energies, one gradient
  stepsize       :    0.15000000                  energy_gap     :    0.08000000
  eps_taylor     :   0.10000E-15                  max_taylor     :             4
  ----------------------------------- OT ---------------------------------------

  Step     Update method      Time    Convergence         Total energy    Change
  ------------------------------------------------------------------------------
     1 OT CG       0.15E+00    0.2     0.00001060       -37.7643872881 -3.78E+01
     2 OT LS       0.19E+00    0.1                      -37.7643872912
     3 OT CG       0.19E+00    0.2     0.00000449       -37.7643872913 -3.25E-09
     4 OT LS       0.10E+00    0.1                      -37.7643872915
     5 OT CG       0.10E+00    0.2     0.00000176       -37.7643872916 -3.28E-10
     6 OT LS       0.11E+00    0.1                      -37.7643872917
     7 OT CG       0.11E+00    0.2     0.00000064       -37.7643872917 -5.16E-11

  *** SCF run converged in     7 steps ***


  Electronic density on regular grids:        -15.9999999934        0.0000000066
  Core density on regular grids:               15.9999999995       -0.0000000005
  Total charge density on r-space grids:        0.0000000061
  Total charge density g-space grids:           0.0000000061

  Overlap energy of the core charge distribution:               0.00000175675216
  Self energy of the core charge distribution:                -96.38742208476296
  Core Hamiltonian energy:                                     27.57741923022069
  Hartree energy:                                              39.67748630042568
  Exchange-correlation energy:                                 -8.63187249433645

  Total energy:                                               -37.76438729170088

  outer SCF iter =    1 RMS gradient =   0.64E-06 energy =        -37.7643872917
  outer SCF loop converged in   1 iterations or    7 steps


 ENERGY| Total FORCE_EVAL ( QS ) energy [a.u.]:              -37.764387291703507

 MD| ***************************************************************************
 MD| Step number                                                              14
 MD| Time [fs]                                                          7.000000
 MD| Conserved quantity [hartree]                            -0.377631892191E+02
 MD| ---------------------------------------------------------------------------
 MD|                                          Instantaneous             Averages
 MD| CPU time per MD step [s]                      1.474452             2.085622
 MD| Energy drift per atom [K]          -0.297354025872E+00  -0.277145557266E+00
 MD| Potential energy [hartree]         -0.377643872917E+02  -0.377644109642E+02
 MD| Kinetic energy [hartree]            0.105144338744E-02   0.111170510376E-02
 MD| Temperature [K]                             110.673055           117.016096
 MD| Pressure [bar]                     -1.173557296969E+03   4.972840784811E+02
 MD| ***************************************************************************

 Number of electrons:                                                         16
 Number of occupied orbitals:                                                  8
 Number of molecular orbitals:                                                 8

 Number of orbital functions:                                                 39
 Number of independent orbital functions:                                     39

 Extrapolation method: ASPC


 SCF WAVEFUNCTION OPTIMIZATION

  ----------------------------------- OT ---------------------------------------
  Minimizer      : CG                  : conjugate gradient
  Preconditioner : FULL_ALL            : diagonalization, state selective
  Precond_solver : DEFAULT
  Line search    : 2PNT                : 2 energies, one gradient
  stepsize       :    0.15000000                  energy_gap     :    0.08000000
  eps_taylor     :   0.10000E-15                  max_taylor     :             4
  ----------------------------------- OT ---------------------------------------

  Step     Update method      Time    Convergence         Total energy    Change
  ------------------------------------------------------------------------------
     1 OT CG       0.15E+00    0.2     0.00001265       -37.7642504355 -3.78E+01
     2 OT LS       0.18E+00    0.1                      -37.7642504399
     3 OT CG       0.18E+00    0.2     0.00000471       -37.7642504400 -4.53E-09
     4 OT LS       0.12E+00    0.1                      -37.7642504403
     5 OT CG       0.12E+00    0.2     0.00000209       -37.7642504404 -4.09E-10
     6 OT LS       0.10E+00    0.1                      -37.7642504405
     7 OT CG       0.10E+00    0.2     0.00000055       -37.7642504405 -7.12E-11

  *** SCF run converged in     7 steps ***


  Electronic density on regular grids:        -15.9999999933        0.0000000067
  Core density on regular grids:               15.9999999995       -0.0000000005
  Total charge density on r-space grids:        0.0000000062
  Total charge density g-space grids:           0.0000000062

  Overlap energy of the core charge distribution:               0.00000167684037
  Self energy of the core charge distribution:                -96.38742208476296
  Core Hamiltonian energy:                                     27.56460192209484
  Hartree energy:                                              39.68715280542318
  Exchange-correlation energy:                                 -8.62858476010187

  Total energy:                                               -37.76425044050644

  outer SCF iter =    1 RMS gradient =   0.55E-06 energy =        -37.7642504405
  outer SCF loop converged in   1 iterations or    7 steps


 ENERGY| Total FORCE_EVAL ( QS ) energy [a.u.]:              -37.764250440508015

 MD| ***************************************************************************
 MD| Step number                                                              15
 MD| Time [fs]                                                          7.500000
 MD| Conserved quantity [hartree]                            -0.377631887326E+02
 MD| ---------------------------------------------------------------------------
 MD|                                          Instantaneous             Averages
 MD| CPU time per MD step [s]                      1.542072             2.049385
 MD| Energy drift per atom [K]          -0.246145176156E+00  -0.275078865192E+00
 MD| Potential energy [hartree]         -0.377642504405E+02  -0.377644002626E+02
 MD| Kinetic energy [hartree]            0.910201121331E-03   0.109827150493E-02
 MD| Temperature [K]                              95.806146           115.602099
 MD| Pressure [bar]                     -1.397696618877E+03   3.709520319906E+02
 MD| ***************************************************************************

 Number of electrons:                                                         16
 Number of occupied orbitals:                                                  8
 Number of molecular orbitals:                                                 8

 Number of orbital functions:                                                 39
 Number of independent orbital functions:                                     39

 Extrapolation method: ASPC


 SCF WAVEFUNCTION OPTIMIZATION

  ----------------------------------- OT ---------------------------------------
  Minimizer      : CG                  : conjugate gradient
  Preconditioner : FULL_ALL            : diagonalization, state selective
  Precond_solver : DEFAULT
  Line search    : 2PNT                : 2 energies, one gradient
  stepsize       :    0.15000000                  energy_gap     :    0.08000000
  eps_taylor     :   0.10000E-15                  max_taylor     :             4
  ----------------------------------- OT ---------------------------------------

  Step     Update method      Time    Convergence         Total energy    Change
  ------------------------------------------------------------------------------
     1 OT CG       0.15E+00    0.2     0.00001479       -37.7641031189 -3.78E+01
     2 OT LS       0.16E+00    0.1                      -37.7641031244
     3 OT CG       0.16E+00    0.2     0.00000864       -37.7641031245 -5.58E-09
     4 OT LS       0.79E-01    0.1                      -37.7641031243
     5 OT CG       0.79E-01    0.2     0.00000314       -37.7641031254 -9.23E-10
     6 OT LS       0.12E+00    0.1                      -37.7641031256
     7 OT CG       0.12E+00    0.2     0.00000114       -37.7641031256 -1.79E-10
     8 OT LS       0.88E-01    0.1                      -37.7641031256
     9 OT CG       0.88E-01    0.2     0.00000014       -37.7641031256 -1.78E-11

  *** SCF run converged in     9 steps ***


  Electronic density on regular grids:        -15.9999999932        0.0000000068
  Core density on regular grids:               15.9999999995       -0.0000000005
  Total charge density on r-space grids:        0.0000000062
  Total charge density g-space grids:           0.0000000062

  Overlap energy of the core charge distribution:               0.00000160722546
  Self energy of the core charge distribution:                -96.38742208476296
  Core Hamiltonian energy:                                     27.55298553157968
  Hartree energy:                                              39.69592931065672
  Exchange-correlation energy:                                 -8.62559749028622

  Total energy:                                               -37.76410312558733

  outer SCF iter =    1 RMS gradient =   0.14E-06 energy =        -37.7641031256
  outer SCF loop converged in   1 iterations or    9 steps


[...]
 Number of independent orbital functions:                                     39

 Extrapolation method: ASPC


 SCF WAVEFUNCTION OPTIMIZATION

  ----------------------------------- OT ---------------------------------------
  Minimizer      : CG                  : conjugate gradient
  Preconditioner : FULL_ALL            : diagonalization, state selective
  Precond_solver : DEFAULT
  Line search    : 2PNT                : 2 energies, one gradient
  stepsize       :    0.15000000                  energy_gap     :    0.08000000
  eps_taylor     :   0.10000E-15                  max_taylor     :             4
  ----------------------------------- OT ---------------------------------------

  Step     Update method      Time    Convergence         Total energy    Change
  ------------------------------------------------------------------------------
     1 OT CG       0.15E+00    0.2     0.00000621       -37.7645179166 -3.78E+01
     2 OT LS       0.20E+00    0.1                      -37.7645179178
     3 OT CG       0.20E+00    0.2     0.00000202       -37.7645179178 -1.20E-09
     4 OT LS       0.13E+00    0.1                      -37.7645179179
     5 OT CG       0.13E+00    0.2     0.00000076       -37.7645179179 -8.28E-11

  *** SCF run converged in     5 steps ***


  Electronic density on regular grids:        -15.9999999950        0.0000000050
  Core density on regular grids:               15.9999999994       -0.0000000006
  Total charge density on r-space grids:        0.0000000045
  Total charge density g-space grids:           0.0000000045

  Overlap energy of the core charge distribution:               0.00000263376747
  Self energy of the core charge distribution:                -96.38742208476296
  Core Hamiltonian energy:                                     27.69246689763220
  Hartree energy:                                              39.59147699828671
  Exchange-correlation energy:                                 -8.66104236285213

  Total energy:                                               -37.76451791792871

  outer SCF iter =    1 RMS gradient =   0.76E-06 energy =        -37.7645179179
  outer SCF loop converged in   1 iterations or    5 steps


 ENERGY| Total FORCE_EVAL ( QS ) energy [a.u.]:              -37.764517917936736

 MD| ***************************************************************************
 MD| Step number                                                            1000
 MD| Time [fs]                                                        500.000000
 MD| Conserved quantity [hartree]                            -0.377631899524E+02
 MD| ---------------------------------------------------------------------------
 MD|                                          Instantaneous             Averages
 MD| CPU time per MD step [s]                      1.122785             1.432879
 MD| Energy drift per atom [K]          -0.374537633266E+00  -0.268782304237E+00
 MD| Potential energy [hartree]         -0.377645179179E+02  -0.377643371868E+02
 MD| Kinetic energy [hartree]            0.738715769720E-03   0.443716334492E-03
 MD| Temperature [K]                              77.755904            46.704790
 MD| Pressure [bar]                      8.243225234142E+02  -5.554912904756E+01
 MD| ***************************************************************************

 -------------------------------------------------------------------------------
 -                                                                             -
 -                                DBCSR STATISTICS                             -
 -                                                                             -
 -------------------------------------------------------------------------------
 COUNTER                                    TOTAL       BLAS       SMM       ACC
 flops     8 x     8 x     8              4410368       0.0%    100.0%      0.0%
 flops    13 x     8 x     8             45205888       0.0%    100.0%      0.0%
 flops    26 x     8 x     8             90411776       0.0%    100.0%      0.0%
 flops     8 x     8 x    13            100439040       0.0%    100.0%      0.0%
 flops    13 x    13 x     8            146810976       0.0%    100.0%      0.0%
 flops    26 x     8 x    13            163051200       0.0%    100.0%      0.0%
 flops    13 x     8 x    13            618621120       0.0%    100.0%      0.0%
 flops inhomo. stacks                           0       0.0%      0.0%      0.0%
 flops total                         1.168950E+09       0.0%    100.0%      0.0%
 flops max/rank                    789.781552E+06       0.0%    100.0%      0.0%
 matmuls inhomo. stacks                         0       0.0%      0.0%      0.0%
 matmuls total                             432225       0.0%    100.0%      0.0%
 number of processed stacks                347917       0.0%    100.0%      0.0%
 average stack size                                     0.0       1.2       0.0
 marketing flops                     1.247946E+09
 -------------------------------------------------------------------------------
 # multiplications                          93764
 max memory usage/rank             183.951360E+06
 # max total images/rank                        3
 # max 3D layers                                1
 # MPI messages exchanged                42756384
 MPI messages size (bytes):
  total size                         3.173440E+09
  min size                           0.000000E+00
  max size                           2.704000E+03
  average size                      74.221436E+00
 MPI breakdown and total messages size (bytes):
             size <=      128            40488413                        0
       128 < size <=     8192             2267971               3175556096
      8192 < size <=    32768                   0                        0
     32768 < size <=   131072                   0                        0
    131072 < size <=  4194304                   0                        0
   4194304 < size <= 16777216                   0                        0
  16777216 < size                               0                        0
 -------------------------------------------------------------------------------

 *** WARNING in dbcsr_mm.F:294 :: Using a non-square number of MPI ranks ***
 *** might lead to poor performance. Used ranks: 24 Suggested: 25 49     ***

 -------------------------------------------------------------------------------
 -                                                                             -
 -                      DBCSR MESSAGE PASSING PERFORMANCE                      -
 -                                                                             -
 -------------------------------------------------------------------------------
 ROUTINE             CALLS      AVE VOLUME [Bytes]
 MP_Bcast                8                     12.
 MP_Allreduce       455905                      8.
 MP_Alltoall        565782                   1709.
 MP_ISend          3948074                    202.
 MP_IRecv          3962064                    101.
 -------------------------------------------------------------------------------

 -------------------------------------------------------------------------------
 -                                                                             -
 -                                GRID STATISTICS                              -
 -                                                                             -
 -------------------------------------------------------------------------------
 LP    KERNEL             BACKEND                              COUNT     PERCENT
 4     collocate ortho    REF                                4949520      60.48%
 4     integrate ortho    REF                                2474760      30.24%
 7     integrate ortho    REF                                 615615       7.52%
 0     collocate general  REF                                  72072       0.88%
 3     integrate general  REF                                  72072       0.88%
 -------------------------------------------------------------------------------

 MEMORY| Estimated peak process memory [MiB]                                 176

 -------------------------------------------------------------------------------
 -                                                                             -
 -                         MESSAGE PASSING PERFORMANCE                         -
 -                                                                             -
 -------------------------------------------------------------------------------

 ROUTINE             CALLS      AVE VOLUME [Bytes]
 MP_Group                4
 MP_Bcast            47629                   9187.
 MP_Allreduce       190891                     35.
 MP_Sync              6112
 MP_Alltoall        136696                2791547.
 MP_ISendRecv       902037                  53808.
 MP_Wait           1414587
 MP_comm_split        3054
 MP_ISend           452250                 181354.
 MP_IRecv           452250                 181180.
 MP_Recv              3009                    624.
 -------------------------------------------------------------------------------


 -------------------------------------------------------------------------------
 -                                                                             -
 -                           R E F E R E N C E S                               -
 -                                                                             -
 -------------------------------------------------------------------------------
 
 CP2K version 8.2, the CP2K developers group (2021).
 CP2K is freely available from https://www.cp2k.org/ .

 Kuehne,Thomas D.; Iannuzzi,Marcella; Del Ben,Mauro;
 Rybkin,Vladimir V.; Seewald,Patrick; Stein,Frederick; Laino,Teodoro;
 Khaliullin,Rustam Z.; Schuett,Ole; Schiffmann,Florian; Golze,Dorothea;
 Wilhelm,Jan; Chulkov,Sergey; Bani-Hashemian,Mohammad Hossein;
 Weber,Valery; Borstnik,Urban; Taillefumier,Mathieu;
 Jakobovits,Alice Shoshana; Lazzaro,Alfio; Pabst,Hans; Mueller,Tiziano;
 Schade,Robert; Guidon,Manuel; Andermatt,Samuel; Holmberg,Nico;
 Schenter,Gregory K.; Hehn,Anna; Bussy,Augustin; Belleflamme,Fabian;
 Tabacchi,Gloria; Gloess,Andreas; Lass,Michael; Bethune,Iain;
 Mundy,Christopher J.; Plessl,Christian; Watkins,Matt;
 VandeVondele,Joost; Krack,Matthias; Hutter,Juerg. 
 The Journal of Chemical Physics, 152 (19), (2020). 
 CP2K: An electronic structure and molecular dynamics software package -
 Quickstep: Efficient and accurate electronic structure calculations.
 https://doi.org/10.1063/5.0007045

 Schuett, Ole; Messmer, Peter; Hutter, Juerg; VandeVondele, Joost. 
 Electronic Structure Calculations on Graphics Processing Units, John
 Wiley & Sons, Ltd, 173-190 (2016). 
 GPU-Accelerated Sparse Matrix-Matrix Multiplication for
 Linear Scaling Density Functional Theory.
 https://doi.org/10.1002/9781118670712.ch8

 Heinecke, A; Henry, G; Hutchinson, M; Pabst, H. 
 Proceedings of Intl. Supercomputing Conference, 981-991 (2016). 
 LIBXSMM: Accelerating Small Matrix Multiplications
 by Runtime Code Generation.
 https://doi.org/10.1109/SC.2016.83

 Borstnik, U; VandeVondele, J; Weber, V; Hutter, J. 
 PARALLEL COMPUTING, 40 (5-6), 47-58 (2014). 
 Sparse matrix multiplication: The distributed block-compressed sparse
 row library.
 https://doi.org/10.1016/j.parco.2014.03.012

 Hutter, J; Iannuzzi, M; Schiffmann, F; VandeVondele, J. 
 WIREs Comput Mol Sci., 4 (1), 15-25 (2014). 
 CP2K: atomistic simulations of condensed matter systems.
 https://doi.org/10.1002/wcms.1159

 Marek, A; Blum, V; Johanni, R; Havu, V; Lang, B; Auckenthaler, T;
 Heinecke, A; Bungartz, H; Lederer, H. 
 Journal of Physics: Condensed Matter, 26 (21), (2014). 
 The ELPA library: scalable parallel eigenvalue solutions for
 electronic structure
 theory and computational science.
 https://doi.org/10.1088/0953-8984/26/21/213201

 VandeVondele, J; Hutter, J. 
 JOURNAL OF CHEMICAL PHYSICS, 127 (11), 114105 (2007). 
 Gaussian basis sets for accurate calculations on molecular systems in
 gas and condensed phases.
 https://doi.org/10.1063/1.2770708

 Kuhne, TD; Krack, M; Mohamed, FR; Parrinello, M. 
 PHYSICAL REVIEW LETTERS, 98 (6), 066401 (2007). 
 Efficient and accurate Car-Parrinello-like approach to
 Born-Oppenheimer molecular dynamics.
 https://doi.org/10.1103/PhysRevLett.98.066401

 Krack, M. 
 THEORETICAL CHEMISTRY ACCOUNTS, 114 (1-3), 145-152 (2005). 
 Pseudopotentials for H to Kr optimized for gradient-corrected
 exchange-correlation functionals.
 https://doi.org/10.1007/s00214-005-0655-y

 VandeVondele, J; Krack, M; Mohamed, F; Parrinello, M; Chassaing, T;
 Hutter, J. COMPUTER PHYSICS COMMUNICATIONS, 167 (2), 103-128 (2005). 
 QUICKSTEP: Fast and accurate density functional calculations using a
 mixed Gaussian and plane waves approach.
 https://doi.org/10.1016/j.cpc.2004.12.014

 Frigo, M; Johnson, SG. 
 PROCEEDINGS OF THE IEEE, 93 (2), 216-231 (2005). 
 The design and implementation of FFTW3.
 https://doi.org/10.1109/JPROC.2004.840301

 Kolafa, J. 
 JOURNAL OF COMPUTATIONAL CHEMISTRY, 25 (3), 335-342 (2004). 
 Time-reversible always stable predictor-corrector method for molecular dynamics of polarizable molecules.
 https://doi.org/10.1002/jcc.10385

 VandeVondele, J; Hutter, J. 
 JOURNAL OF CHEMICAL PHYSICS, 118 (10), 4365-4369 (2003). 
 An efficient orbital transformation method for electronic structure
 calculations.
 https://doi.org/10.1063/1.1543154

 Hartwigsen, C; Goedecker, S; Hutter, J. 
 PHYSICAL REVIEW B, 58 (7), 3641-3662 (1998). 
 Relativistic separable dual-space Gaussian pseudopotentials from H to Rn.
 https://doi.org/10.1103/PhysRevB.58.3641

 Lippert, G; Hutter, J; Parrinello, M. 
 MOLECULAR PHYSICS, 92 (3), 477-487 (1997). 
 A hybrid Gaussian and plane wave density functional scheme.
 https://doi.org/10.1080/002689797170220

 Perdew, JP; Burke, K; Ernzerhof, M. 
 PHYSICAL REVIEW LETTERS, 77 (18), 3865-3868 (1996). 
 Generalized gradient approximation made simple.
 https://doi.org/10.1103/PhysRevLett.77.3865

 Goedecker, S; Teter, M; Hutter, J. 
 PHYSICAL REVIEW B, 54 (3), 1703-1710 (1996). 
 Separable dual-space Gaussian pseudopotentials.
 https://doi.org/10.1103/PhysRevB.54.1703

 NOSE, S. JOURNAL OF CHEMICAL PHYSICS, 81 (1), 511-519 (1984). 
 A UNIFIED FORMULATION OF THE CONSTANT TEMPERATURE MOLECULAR-DYNAMICS
 METHODS.
 https://doi.org/10.1063/1.447334

 NOSE, S. MOLECULAR PHYSICS, 52 (2), 255-268 (1984). 
 A MOLECULAR-DYNAMICS METHOD FOR SIMULATIONS IN THE CANONICAL ENSEMBLE.
 https://doi.org/10.1080/00268978400101201


 -------------------------------------------------------------------------------
 -                                                                             -
 -                                T I M I N G                                  -
 -                                                                             -
 -------------------------------------------------------------------------------
 SUBROUTINE                       CALLS  ASD         SELF TIME        TOTAL TIME
                                MAXIMUM       AVERAGE  MAXIMUM  AVERAGE  MAXIMUM
 CP2K                                 1  1.0    0.005    0.009 1432.994 1432.997
 qs_mol_dyn_low                       1  2.0    0.025    0.030 1432.891 1432.895
 qs_forces                         1001  4.0    0.061    0.071 1425.430 1425.432
 velocity_verlet                   1000  3.0    0.091    0.142 1423.432 1423.705
 qs_energies                       1001  5.0    0.039    0.042 1242.033 1242.068
 scf_env_do_scf                    1001  6.0    0.030    0.108 1168.429 1168.434
 scf_env_do_scf_inner_loop         7047  7.0    0.125    0.614  997.977  998.298
 rebuild_ks_matrix                 8048  8.6    0.020    0.022  973.329  973.740
 qs_ks_build_kohn_sham_matrix      8048  9.6    0.750    0.789  973.309  973.720
 qs_ks_update_qs_env               8048  8.0    0.046    0.053  800.667  801.027
 qs_vxc_create                     8048 10.6    0.088    0.097  735.719  736.939
 pw_transfer                     126706 12.2    5.538    6.038  655.051  670.930
 fft_wrap_pw1pw2                 110610 13.3    0.855    0.943  645.617  661.041
 fft_wrap_pw1pw2_200              71391 14.4   36.854   39.376  617.019  631.798
 fft3d_ps                        110610 15.3  302.667  348.128  523.188  539.958
 xc_vxc_pw_create                  5025 11.4   26.416   30.831  536.708  537.929
 xc_rho_set_and_dset_create        8048 12.6    2.998    3.086  477.840  526.423
 qs_rho_update_rho                 8048  8.1    0.032    0.037  309.198  309.315
 calculate_rho_elec                8048  9.1    4.628    5.119  309.166  309.286
 xc_functional_eval                8048 13.6    0.052    0.067  243.316  290.424
 pbe_lda_eval                      8048 14.6  243.263  290.384  243.263  290.384
 density_rs2pw                     8048 10.1    0.275    0.293  253.968  260.749
 mp_alltoall_z22v                110610 17.3  174.848  205.939  174.848  205.939
 xc_exc_calc                       3023 12.0    1.344    1.550  198.923  198.951
 rs_pw_transfer                   54294 11.9    0.562    0.617  192.724  197.599
 qs_ks_update_qs_env_forces        1001  5.0    0.004    0.004  173.143  173.216
 init_scf_loop                     1001  7.0    0.018    0.019  169.435  169.440
 sum_up_and_integrate              5025 10.4    0.865    0.989  150.245  150.555
 integrate_v_rspace                5025 11.4    0.089    0.096  149.374  149.645
 yz_to_x                          53293 15.7   14.440   16.774  109.427  134.220
 potential_pw2rs                   5025 12.4    0.287    0.299  124.581  124.870
 x_to_yz                          57317 16.8   29.929   34.732  109.790  114.333
 rs_pw_transfer_RS2PW_200          9049 11.9   44.275   46.229   76.880   81.925
 dbcsr_multiply_generic           93764 12.3    2.394    2.748   77.162   78.629
 qs_scf_new_mos                    7047  8.0    0.033    0.041   68.876   69.039
 qs_scf_loop_do_ot                 7047  9.0    0.031    0.035   68.843   69.008
 ot_scf_mini                       7047 10.0    0.084    0.091   62.931   62.993
 mp_sum_d                        108370 12.4   45.395   61.434   45.395   61.434
 rs_pw_transfer_PW2RS_200          6026 13.7   30.488   32.137   54.454   55.871
 mp_waitany                      452250 13.6   45.189   50.349   45.189   50.349
 init_scf_run                      1001  6.0    0.019    0.091   49.286   49.287
 scf_env_initial_rho_setup         1001  7.0    0.011    0.059   49.265   49.269
 wfi_extrapolate                   1001  8.0    0.046    0.050   48.837   48.849
 grid_collocate_task_list          8048 10.1   42.225   47.699   42.225   47.699
 mp_waitall_1                   6213121 16.1   39.260   45.455   39.260   45.455
 pw_scatter_p                     57317 15.8   42.067   42.554   42.067   42.554
 pw_gather_p                      53293 14.7   40.586   41.893   40.586   41.893
 ot_mini                           7047 11.0    0.027    0.030   36.188   36.228
 multiply_cannon                  93764 13.3    4.896    5.301   30.074   32.672
 make_m2s                        187528 13.3    1.929    2.184   28.323   29.911
 -------------------------------------------------------------------------------

 The number of warnings for this run is : 2
 
 -------------------------------------------------------------------------------
  **** **** ******  **  PROGRAM ENDED AT                 2021-09-10 20:48:26.680
 ***** ** ***  *** **   PROGRAM RAN ON                                     node4
 **    ****   ******    PROGRAM RAN BY                                   lujunbo
 ***** **    ** ** **   PROGRAM PROCESS ID                                366762
  **** **  *******  **  PROGRAM STOPPED IN /home/lujunbo/WORK/deepmd/co2/cutoff_
                                           400/cp2k_md
