       3
 i =        0, time =        0.000, E =       -37.7637405868
  C         0.0000000000        0.0000000000        0.0000000000
  O         0.0000000000        0.0000000000       -1.1600000000
  O         0.0000000000        0.0000000000        1.1600000000
       3
 i =        1, time =        0.500, E =       -37.7638451917
  C        -0.0001058578        0.0003833438       -0.0002648725
  O        -0.0010238421        0.0002037099       -1.1607845912
  O         0.0011036261       -0.0004915884        1.1609834251
       3
 i =        2, time =        1.000, E =       -37.7639675570
  C        -0.0002111526        0.0007646921       -0.0005146163
  O        -0.0020442358        0.0004071871       -1.1618108769
  O         0.0022032472       -0.0009809685        1.1621975415
       3
 i =        3, time =        1.500, E =       -37.7641003072
  C        -0.0003155020        0.0011427785       -0.0007356954
  O        -0.0030597486        0.0006105989       -1.1630658942
  O         0.0032970098       -0.0014668814        1.1636195439
       3
 i =        4, time =        2.000, E =       -37.7642356016
  C        -0.0004184973        0.0015163038       -0.0009163944
  O        -0.0040689284        0.0008141051       -1.1645329006
  O         0.0043830253       -0.0019480435        1.1652241517
       3
 i =        5, time =        2.500, E =       -37.7643653738
  C        -0.0005197116        0.0018839368       -0.0010474480
  O        -0.0050702942        0.0010178566       -1.1661913948
  O         0.0054593661       -0.0024231422        1.1669840672
       3
 i =        6, time =        3.000, E =       -37.7644818338
  C        -0.0006187089        0.0022443184       -0.0011224714
  O        -0.0060623252        0.0012219908       -1.1680172797
  O         0.0065240646       -0.0028908353        1.1688704476
       3
 i =        7, time =        3.500, E =       -37.7645779029
  C        -0.0007150538        0.0025960686       -0.0011382289
  O        -0.0070434485        0.0014266250       -1.1699831777
  O         0.0075751163       -0.0033497541        1.1708534167
       3
 i =        8, time =        4.000, E =       -37.7646476235
  C        -0.0008083221        0.0029377961       -0.0010946506
  O        -0.0080120303        0.0016318491       -1.1720589139
  O         0.0086104863       -0.0037985093        1.1729025693
       3
 i =        9, time =        4.500, E =       -37.7646864576
  C        -0.0008981100        0.0032681088       -0.0009947173
  O        -0.0089663714        0.0018377226       -1.1742119895
  O         0.0096281175       -0.0042356935        1.1749873787
       3
 i =       10, time =        5.000, E =       -37.7646915648
  C        -0.0009840423        0.0035856294       -0.0008441440
  O        -0.0099047104        0.0020442695       -1.1764081236
  O         0.0106259485       -0.0046598894        1.1770775381
       3
 i =       11, time =        5.500, E =       -37.7646620366
  C        -0.0010657769        0.0038890013       -0.0006509596
  O        -0.0108252347        0.0022514767       -1.1786118234
  O         0.0116019384       -0.0050696811        1.1791432647
       3
 i =       12, time =        6.000, E =       -37.7645990230
  C        -0.0011430104        0.0041769113       -0.0004250074
  O        -0.0117261113        0.0024592909       -1.1807870310
  O         0.0125541064       -0.0054636768        1.1811556159
       3
 i =       13, time =        6.500, E =       -37.7645057339
  C        -0.0012154769        0.0044480946       -0.0001773536
  O        -0.0126055251        0.0026676214       -1.1828978107
  O         0.0134805702       -0.0058405265        1.1830867715
       3
 i =       14, time =        7.000, E =       -37.7643872917
  C        -0.0012829495        0.0047013574        0.0000802721
  O        -0.0134617303        0.0028763411       -1.1849090501
  O         0.0143795938       -0.0061989481        1.1849103386
       3
 i =       15, time =        7.500, E =       -37.7642504405
  C        -0.0013452373        0.0049355862        0.0003360389
  O        -0.0142930973        0.0030852967       -1.1867871544
  O         0.0152496161       -0.0065377472        1.1866016288
       3
 i =       16, time =        8.000, E =       -37.7641031256
  C        -0.0014021817        0.0051497598        0.0005784990
  O        -0.0150981559        0.0032943150       -1.1885007193
  O         0.0160892735       -0.0068558347        1.1881379530
       3
 i =       17, time =        8.500, E =       -37.7639539705
  C        -0.0014536510        0.0053429591        0.0007971590
  O        -0.0158756285        0.0035032068       -1.1900211957
  O         0.0168974130       -0.0071522393        1.1894988308
       3
 i =       18, time =        9.000, E =       -37.7638117039
  C        -0.0014995353        0.0055143757        0.0009828100
  O        -0.0166244487        0.0037117712       -1.1913234119
  O         0.0176730944       -0.0074261149        1.1906662288
       3
 i =       19, time =        9.500, E =       -37.7636845864
  C        -0.0015397423        0.0056633195        0.0011278418
  O        -0.0173437677        0.0039197970       -1.1923860355
  O         0.0184155872       -0.0076767440        1.1916247509
       3
 i =       20, time =       10.000, E =       -37.7635798805
  C        -0.0015741913        0.0057892245        0.0012265151
  O        -0.0180329498        0.0041270630       -1.1931919432
  O         0.0191243622       -0.0079035370        1.1923617748
       3
 i =       21, time =       10.500, E =       -37.7635034050
  C        -0.0016028096        0.0058916532        0.0012751203
  O        -0.0186915603        0.0043333361       -1.1937284777
  O         0.0197990780       -0.0081060305        1.1928675693
       3
 i =       22, time =       11.000, E =       -37.7634591974
  C        -0.0016255293        0.0059703000        0.0012720714
  O        -0.0193193522        0.0045383700       -1.1939876130
  O         0.0204395645       -0.0082838837        1.1931353755
       3
 i =       23, time =       11.500, E =       -37.7634492993
  C        -0.0016422838        0.0060249931        0.0012179290
  O        -0.0199162527        0.0047419039       -1.1939660333
  O         0.0210458102       -0.0084368743        1.1931614650
       3
 i =       24, time =       12.000, E =       -37.7634736664
  C        -0.0016530068        0.0060556951        0.0011153568
  O        -0.0204823519        0.0049436626       -1.1936651358
  O         0.0216179521       -0.0085648967        1.1929451771
       3
 i =       25, time =       12.500, E =       -37.7635302021
  C        -0.0016576312        0.0060625028        0.0009690134
  O        -0.0210178958        0.0051433579       -1.1930909627
  O         0.0221562664       -0.0086679607        1.1924889384
       3
 i =       26, time =       13.000, E =       -37.7636149104
  C        -0.0016560896        0.0060456454        0.0007853835
  O        -0.0215232807        0.0053406922       -1.1922540657
  O         0.0226611601       -0.0087461914        1.1917982657
       3
 i =       27, time =       13.500, E =       -37.7637221573
  C        -0.0016483160        0.0060054821        0.0005725478
  O        -0.0219990502        0.0055353638       -1.1911693026
  O         0.0231331646       -0.0087998293        1.1908817482
       3
 i =       28, time =       14.000, E =       -37.7638450280
  C        -0.0016342489        0.0059424982        0.0003398965
  O        -0.0224458906        0.0057270726       -1.1898555613
  O         0.0235729310       -0.0088292317        1.1897510077
       3
 i =       29, time =       14.500, E =       -37.7639757608
  C        -0.0016138356        0.0058572993        0.0000977558
  O        -0.0228646251        0.0059155269       -1.1883353931
  O         0.0239812261       -0.0088348729        1.1884206336
       3
 i =       30, time =       15.000, E =       -37.7641062296
  C        -0.0015870367        0.0057506067       -0.0001429252
  O        -0.0232562052        0.0061004481       -1.1866346278
  O         0.0243589260       -0.0088173439        1.1869080602
       3
 i =       31, time =       15.500, E =       -37.7642284462
  C        -0.0015538329        0.0056232486       -0.0003710605
  O        -0.0236216953        0.0062815755       -1.1847818544
  O         0.0247070074       -0.0087773498        1.1852334374
       3
 i =       32, time =       16.000, E =       -37.7643350448
  C        -0.0015142331        0.0054761536       -0.0005759205
  O        -0.0239622493        0.0064586683       -1.1828078634
  O         0.0250265410       -0.0087157040        1.1834194619
       3
 i =       33, time =       16.500, E =       -37.7644197138
  C        -0.0014682822        0.0053103396       -0.0007476171
  O        -0.0242790837        0.0066315056       -1.1807450345
  O         0.0253186829       -0.0086333209        1.1814911394
       3
 i =       34, time =       17.000, E =       -37.7644775454
  C        -0.0014160692        0.0051269047       -0.0008775770
  O        -0.0245734491        0.0067998837       -1.1786267203
  O         0.0255846602       -0.0085312035        1.1794755230
       3
 i =       35, time =       17.500, E =       -37.7645052838
  C        -0.0013577353        0.0049270160       -0.0009590116
  O        -0.0248466026        0.0069636105       -1.1764866065
  O         0.0258257527       -0.0084104285        1.1774014094
       3
 i =       36, time =       18.000, E =       -37.7645014635
  C        -0.0012934819        0.0047119014       -0.0009873326
  O        -0.0250997820        0.0071224996       -1.1743580920
  O         0.0260432737       -0.0082721301        1.1752990031
       3
 i =       37, time =       18.500, E =       -37.7644664412
  C        -0.0012235738        0.0044828303       -0.0009604806
  O        -0.0253341816        0.0072763647       -1.1722737259
  O         0.0262385465       -0.0081174761        1.1731995607
       3
 i =       38, time =       19.000, E =       -37.7644023353
  C        -0.0011483444        0.0042411067       -0.0008791603
  O        -0.0255509347        0.0074250121       -1.1702646564
  O         0.0264128904       -0.0079476510        1.1711349780
       3
 i =       39, time =       19.500, E =       -37.7643129063
  C        -0.0010681938        0.0039880532       -0.0007469149
  O        -0.0257510982        0.0075682300       -1.1683601941
  O         0.0265676044       -0.0077638351        1.1691373790
       3
 i =       40, time =       20.000, E =       -37.7642033763
  C        -0.0009835888        0.0037250059       -0.0005700764
  O        -0.0259356445        0.0077057789       -1.1665873703
  O         0.0267039542       -0.0075671900        1.1672386198
       3
 i =       41, time =       20.500, E =       -37.7640801631
  C        -0.0008950546        0.0034532998       -0.0003575158
  O        -0.0261054505        0.0078373886       -1.1649705955
  O         0.0268231568       -0.0073588391        1.1654697489
       3
 i =       42, time =       21.000, E =       -37.7639505301
  C        -0.0008031644        0.0031742588       -0.0001202544
  O        -0.0262612911        0.0079627610       -1.1635313723
  O         0.0269263609       -0.0071398608        1.1638604304
       3
 i =       43, time =       21.500, E =       -37.7638222101
  C        -0.0007085250        0.0028891872        0.0001291069
  O        -0.0264038310        0.0080815661       -1.1622881450
  O         0.0270146240       -0.0069112807        1.1624383854
       3
 i =       44, time =       22.000, E =       -37.7637030289
  C        -0.0006117610        0.0025993622        0.0003770620
  O        -0.0265336161        0.0081934402       -1.1612561914
  O         0.0270888944       -0.0066740641        1.1612288042
       3
 i =       45, time =       22.500, E =       -37.7636004308
  C        -0.0005134962        0.0023060286        0.0006099611
  O        -0.0266510754        0.0082979935       -1.1604475303
  O         0.0271499947       -0.0064291223        1.1602537021
       3
 i =       46, time =       23.000, E =       -37.7635210083
  C        -0.0004143330        0.0020103950        0.0008148614
  O        -0.0267565275        0.0083948143       -1.1598709307
  O         0.0271986170       -0.0061773128        1.1595313159
       3
 i =       47, time =       23.500, E =       -37.7634699998
  C        -0.0003148350        0.0017136318        0.0009803025
  O        -0.0268501888        0.0084834707       -1.1595318628
  O         0.0272353181       -0.0059194398        1.1590754900
       3
 i =       48, time =       24.000, E =       -37.7634508457
  C        -0.0002155106        0.0014168719        0.0010970183
  O        -0.0269321770        0.0085635125       -1.1594325657
  O         0.0272605117       -0.0056562582        1.1588952322
       3
 i =       49, time =       24.500, E =       -37.7634649123
  C        -0.0001168001        0.0011212145        0.0011585131
  O        -0.0270025127        0.0086344748       -1.1595721925
  O         0.0272744620       -0.0053884812        1.1589944476
       3
 i =       50, time =       25.000, E =       -37.7635113596
  C        -0.0000190681        0.0008277294        0.0011614581
  O        -0.0270611213        0.0086958791       -1.1599469361
  O         0.0272772804       -0.0051167855        1.1593717720
       3
 i =       51, time =       25.500, E =       -37.7635871714
  C         0.0000773993        0.0005374635        0.0011058783
  O        -0.0271078348        0.0087472333       -1.1605501434
  O         0.0272689257       -0.0048418160        1.1600205604
       3
 i =       52, time =       26.000, E =       -37.7636873575
  C         0.0001723924        0.0002514478        0.0009951166
  O        -0.0271423933        0.0087880286       -1.1613724049
  O         0.0272492077       -0.0045641891        1.1609290029
       3
 i =       53, time =       26.500, E =       -37.7638053582
  C         0.0002657700       -0.0000292965        0.0008355830
  O        -0.0271644469        0.0088177416       -1.1624016767
  O         0.0272177910       -0.0042844958        1.1620804078
       3
 i =       54, time =       27.000, E =       -37.7639335790
  C         0.0003574468       -0.0003037515        0.0006363120
  O        -0.0271735501        0.0088358339       -1.1636234656
  O         0.0271742023       -0.0040033064        1.1634537283
       3
 i =       55, time =       27.500, E =       -37.7640639448
  C         0.0004473784       -0.0005708958        0.0004083537
  O        -0.0271691581        0.0088417464       -1.1650209597
  O         0.0271178321       -0.0037211793        1.1650241356
       3
 i =       56, time =       28.000, E =       -37.7641884676
  C         0.0005355444       -0.0008297020        0.0001641153
  O        -0.0271506262        0.0088348952       -1.1665751753
  O         0.0270479474       -0.0034386620        1.1667636376
       3
 i =       57, time =       28.500, E =       -37.7642997262
  C         0.0006219295       -0.0010791354       -0.0000833985
  O        -0.0271172124        0.0088146708       -1.1682650795
  O         0.0269637131       -0.0031562980        1.1686417318
       3
 i =       58, time =       29.000, E =       -37.7643913071
  C         0.0007065064       -0.0013181562       -0.0003213489
  O        -0.0270680861        0.0087804451       -1.1700677085
  O         0.0268642158       -0.0028746302        1.1706260725
       3
 i =       59, time =       29.500, E =       -37.7644581695
  C         0.0007892199       -0.0015457237       -0.0005377473
  O        -0.0270023351        0.0087315730       -1.1719583318
  O         0.0267484885       -0.0025942047        1.1726831233
       3
 i =       60, time =       30.000, E =       -37.7644968924
  C         0.0008699763       -0.0017608067       -0.0007220498
  O        -0.0269189765        0.0086674041       -1.1739107134
  O         0.0266155274       -0.0023155725        1.1747788306
       3
 i =       61, time =       30.500, E =       -37.7645057928
  C         0.0009486329       -0.0019623847       -0.0008656161
  O        -0.0268169586        0.0085872927       -1.1758973758
  O         0.0264643060       -0.0020392935        1.1768792269
       3
 i =       62, time =       31.000, E =       -37.7644849494
  C         0.0010249935       -0.0021494652       -0.0009620847
  O        -0.0266951800        0.0084906137       -1.1778899155
  O         0.0262937951       -0.0017659385        1.1789510361
       3
 i =       63, time =       31.500, E =       -37.7644361549
  C         0.0010988070       -0.0023210893       -0.0010075561
  O        -0.0265525035        0.0083767732       -1.1798593368
  O         0.0261029802       -0.0014960909        1.1809621668
       3
 i =       64, time =       32.000, E =       -37.7643627881
  C         0.0011697713       -0.0024763534       -0.0010006708
  O        -0.0263877757        0.0082452302       -1.1817764717
  O         0.0258908809       -0.0012303410        1.1828822198
       3
 i =       65, time =       32.500, E =       -37.7642696091
  C         0.0012375381       -0.0026144190       -0.0009425361
  O        -0.0261998439        0.0080955110       -1.1836124189
  O         0.0256565658       -0.0009692812        1.1846829006
       3
 i =       66, time =       33.000, E =       -37.7641624822
  C         0.0013017215       -0.0027345262       -0.0008365714
  O        -0.0259875771        0.0079272253       -1.1853390303
  O         0.0253991663       -0.0007135007        1.1863384215
       3
 i =       67, time =       33.500, E =       -37.7640480419
  C         0.0013619080       -0.0028360075       -0.0006882471
  O        -0.0257498865        0.0077400800       -1.1869293987
  O         0.0251178866       -0.0004635769        1.1878258176
       3
 i =       68, time =       34.000, E =       -37.7639333154
  C         0.0014176685       -0.0029182993       -0.0005047685
  O        -0.0254857423        0.0075338888       -1.1883583490
  O         0.0248120138       -0.0002200681        1.1891252171
       3
 i =       69, time =       34.500, E =       -37.7638253260
  C         0.0014685706       -0.0029809515       -0.0002946868
  O        -0.0251941888        0.0073085792       -1.1896028996
  O         0.0244809234        0.0000164940        1.1902200170
       3
 i =       70, time =       35.000, E =       -37.7637306957
  C         0.0015141911       -0.0030236365       -0.0000675084
  O        -0.0248743559        0.0070641955       -1.1906427002
  O         0.0241240827        0.0002456113        1.1910970237
       3
 i =       71, time =       35.500, E =       -37.7636552717
  C         0.0015541280       -0.0030461559        0.0001667406
  O        -0.0245254670        0.0068009000       -1.1914604269
  O         0.0237410511        0.0004668248        1.1917465109
       3
 i =       72, time =       36.000, E =       -37.7636037967
  C         0.0015880111       -0.0030484453        0.0003978498
  O        -0.0241468447        0.0065189716       -1.1920420968
  O         0.0233314814        0.0006797198        1.1921622693
       3
 i =       73, time =       36.500, E =       -37.7635796412
  C         0.0016155130       -0.0030305766        0.0006158974
  O        -0.0237379176        0.0062188041       -1.1923773681
  O         0.0228951202        0.0008839296        1.1923415364
       3
 i =       74, time =       37.000, E =       -37.7635846081
  C         0.0016363577       -0.0029927586        0.0008115969
  O        -0.0232982288        0.0059009034       -1.1924597532
  O         0.0224318102        0.0010791380        1.1922849349
       3
 i =       75, time =       37.500, E =       -37.7636188208
  C         0.0016503285       -0.0029353356        0.0009766606
  O        -0.0228274440        0.0055658841       -1.1922867883
  O         0.0219414945        0.0012650814        1.1919963548
       3
 i =       76, time =       38.000, E =       -37.7636806999
  C         0.0016572735       -0.0028587839        0.0011040993
  O        -0.0223253620        0.0052144666       -1.1918601332
  O         0.0214242215        0.0014415504        1.1914828160
       3
 i =       77, time =       38.500, E =       -37.7637670333
  C         0.0016571096       -0.0027637062        0.0011885000
  O        -0.0217919276        0.0048474742       -1.1911856193
  O         0.0208801512        0.0016083912        1.1907542951
       3
 i =       78, time =       39.000, E =       -37.7638731410
  C         0.0016498254       -0.0026508251        0.0012262522
  O        -0.0212272458        0.0044658295       -1.1902732294
  O         0.0203095635        0.0017655075        1.1898235275
       3
 i =       79, time =       39.500, E =       -37.7639931308
  C         0.0016354814       -0.0025209739        0.0012157184
  O        -0.0206315971        0.0040705486       -1.1891370081
  O         0.0197128661        0.0019128615        1.1887057824
       3
 i =       80, time =       40.000, E =       -37.7641202395
  C         0.0016142085       -0.0023750872        0.0011573431
  O        -0.0200054510        0.0036627335       -1.1877948937
  O         0.0190905993        0.0020504751        1.1874186137
       3
 i =       81, time =       40.500, E =       -37.7642472425
  C         0.0015862045       -0.0022141886        0.0010536895
  O        -0.0193494736        0.0032435634       -1.1862684664
  O         0.0184434372        0.0021784303        1.1859815855
       3
 i =       82, time =       41.000, E =       -37.7643669076
  C         0.0015517286       -0.0020393788        0.0009093855
  O        -0.0186645242        0.0028142821       -1.1845825964
  O         0.0177721824        0.0022968692        1.1844159770
       3
 i =       83, time =       41.500, E =       -37.7644724593
  C         0.0015110944       -0.0018518223        0.0007310247
  O        -0.0179516460        0.0023761819       -1.1827650521
  O         0.0170777580        0.0024059924        1.1827444864
       3
 i =       84, time =       42.000, E =       -37.7645580244
  C         0.0014646614       -0.0016527334        0.0005269192
  O        -0.0172120438        0.0019305851       -1.1808459743
  O         0.0163611935        0.0025060545        1.1809909187
       3
 i =       85, time =       42.500, E =       -37.7646190136
  C         0.0014128241       -0.0014433619        0.0003067984
  O        -0.0164470576        0.0014788236       -1.1788573183
  O         0.0156236093        0.0025973595        1.1791798820
       3
 i =       86, time =       43.000, E =       -37.7646524112
  C         0.0013560016       -0.0012249805        0.0000814219
  O        -0.0156581364        0.0010222232       -1.1768322498
  O         0.0148661990        0.0026802562        1.1773364935
       3
 i =       87, time =       43.500, E =       -37.7646569546
  C         0.0012946235       -0.0009988686       -0.0001379575
  O        -0.0148468038        0.0005620903       -1.1748044944
  O         0.0140902092        0.0027551312        1.1754861425
       3
 i =       88, time =       44.000, E =       -37.7646331923
  C         0.0012291205       -0.0007663044       -0.0003400699
  O        -0.0140146340        0.0000997011       -1.1728077093
  O         0.0132969255        0.0028224027        1.1736542149
       3
 i =       89, time =       44.500, E =       -37.7645834242
  C         0.0011599126       -0.0005285529       -0.0005142424
  O        -0.0131632190       -0.0003637056       -1.1708748364
  O         0.0124876514        0.0028825111        1.1718658896
       3
 i =       90, time =       45.000, E =       -37.7645115242
  C         0.0010873972       -0.0002868535       -0.0006509584
  O        -0.0122941344       -0.0008269332       -1.1690374777
  O         0.0116636848        0.0029359107        1.1701459062
       3
 i =       91, time =       45.500, E =       -37.7644226589
  C         0.0010119452       -0.0000424193       -0.0007424435
  O        -0.0114089257       -0.0012888234       -1.1673252975
  O         0.0108263086        0.0029830644        1.1685183742
       3
 i =       92, time =       46.000, E =       -37.7643229419
  C         0.0009338960        0.0002035679       -0.0007831460
  O        -0.0105091013       -0.0017482522       -1.1657654757
  O         0.0099767845        0.0030244381        1.1670065521
       3
 i =       93, time =       46.500, E =       -37.7642190450
  C         0.0008535559        0.0004499590       -0.0007701265
  O        -0.0095961311       -0.0022041248       -1.1643821702
  O         0.0091163521        0.0030604983        1.1656325797
       3
 i =       94, time =       47.000, E =       -37.7641177444
  C         0.0007711993        0.0006956374       -0.0007033117
  O        -0.0086714488       -0.0026553715       -1.1631960557
  O         0.0082462296        0.0030917063        1.1644171883
       3
 i =       95, time =       47.500, E =       -37.7640254946
  C         0.0006870741        0.0009395164       -0.0005855721
  O        -0.0077364623       -0.0031009432       -1.1622239740
  O         0.0073676160        0.0031185146        1.1633794003
       3
 i =       96, time =       48.000, E =       -37.7639480272
  C         0.0006014075        0.0011805357       -0.0004226455
  O        -0.0067925639       -0.0035398048       -1.1614786747
  O         0.0064816969        0.0031413635        1.1625362120
       3
 i =       97, time =       48.500, E =       -37.7638900577
  C         0.0005144149        0.0014176566       -0.0002228282
  O        -0.0058411453       -0.0039709334       -1.1609687754
  O         0.0055896489        0.0031606803        1.1619023209
       3
 i =       98, time =       49.000, E =       -37.7638550770
  C         0.0004263092        0.0016498582        0.0000034659
  O        -0.0048836117       -0.0043933175       -1.1606987175
  O         0.0046926497        0.0031768798        1.1614897765
       3
 i =       99, time =       49.500, E =       -37.7638451702
  C         0.0003373084        0.0018761325        0.0002443321
  O        -0.0039213878       -0.0048059558       -1.1606688166
  O         0.0037918835        0.0031903638        1.1613075821
       3
 i =      100, time =       50.000, E =       -37.7638609152
  C         0.0002476432        0.0020954813        0.0004870061
  O        -0.0029559239       -0.0052078562       -1.1608753968
  O         0.0028885422        0.0032015199        1.1613613731
       3
 i =      101, time =       50.500, E =       -37.7639013717
  C         0.0001575625        0.0023069135        0.0007186661
  O        -0.0019886996       -0.0055980370       -1.1613110757
  O         0.0019838281        0.0032107201        1.1616531211
       3
 i =      102, time =       51.000, E =       -37.7639641454
  C         0.0000673366        0.0025094443        0.0009271837
  O        -0.0010212244       -0.0059755261       -1.1619651123
  O         0.0010789566        0.0032183204        1.1621809388
       3
 i =      103, time =       51.500, E =       -37.7640455338
  C        -0.0000227427        0.0027020960        0.0011018909
  O        -0.0000550387       -0.0063393634       -1.1628238060
  O         0.0001751587        0.0032246585        1.1629389210
       3
 i =      104, time =       52.000, E =       -37.7641407434
  C        -0.0001123643        0.0028838999        0.0012341118
  O         0.0009082878       -0.0066886024       -1.1638709302
  O        -0.0007263148        0.0032300497        1.1639171988
       3
 i =      105, time =       52.500, E =       -37.7642441000
  C        -0.0002012017        0.0030538997        0.0013176788
  O         0.0018671563       -0.0070223065       -1.1650881334
  O        -0.0016241893        0.0032347861        1.1651019705
       3
 i =      106, time =       53.000, E =       -37.7643493546
  C        -0.0002889188        0.0032111553        0.0013491709
  O         0.0028199380       -0.0073395456       -1.1664552462
  O        -0.0025171591        0.0032391351        1.1664756338
       3
 i =      107, time =       53.500, E =       -37.7644500625
  C        -0.0003751768        0.0033547500        0.0013280770
  O         0.0037649741       -0.0076393994       -1.1679506376
  O        -0.0034038792        0.0032433338        1.1680170179
       3
 i =      108, time =       54.000, E =       -37.7645399786
  C        -0.0004596407        0.0034837974        0.0012566982
  O         0.0047005757       -0.0079209608       -1.1695515481
  O        -0.0042829555        0.0032475846        1.1697017787
       3
 i =      109, time =       54.500, E =       -37.7646134656
  C        -0.0005419858        0.0035974503        0.0011399406
  O         0.0056250259       -0.0081833411       -1.1712344035
  O        -0.0051529373        0.0032520496        1.1715028453
       3
 i =      110, time =       55.000, E =       -37.7646658418
  C        -0.0006219030        0.0036949087        0.0009849437
  O         0.0065365807       -0.0084256733       -1.1729750952
  O        -0.0060123116        0.0032568493        1.1733909556
       3
 i =      111, time =       55.500, E =       -37.7646936718
  C        -0.0006991027        0.0037754320        0.0008006173
  O         0.0074334738       -0.0086471137       -1.1747492160
  O        -0.0068595009        0.0032620638        1.1753352068
       3
 i =      112, time =       56.000, E =       -37.7646950030
  C        -0.0007733167        0.0038383358        0.0005970856
  O         0.0083139235       -0.0088468443       -1.1765322393
  O        -0.0076928631        0.0032677359        1.1773036158
       3