       3
 i =        0, time =        0.000, E =       -37.7637405868
  C         0.0000820712       -0.0000268420       -0.0000013547
  O        -0.0000001209        0.0000001072       -0.0325075892
  O        -0.0000002046        0.0000000452        0.0325076406
       3
 i =        1, time =        0.500, E =       -37.7638451917
  C         0.0000341902       -0.0001196456        0.0014154066
  O         0.0001827661        0.0000221705       -0.0314080743
  O        -0.0002341786        0.0001591008        0.0300383448
       3
 i =        2, time =        1.000, E =       -37.7639675570
  C         0.0000712681       -0.0002423765        0.0027301070
  O         0.0003671932        0.0000440179       -0.0297978938
  O        -0.0004729809        0.0003215286        0.0271547796
       3
 i =        3, time =        1.500, E =       -37.7641003072
  C         0.0001108873       -0.0003683059        0.0038708578
  O         0.0005536640        0.0000650716       -0.0276981490
  O        -0.0007159167        0.0004870693        0.0239475611
       3
 i =        4, time =        2.000, E =       -37.7642356016
  C         0.0001522759       -0.0004973538        0.0047764610
  O         0.0007433912        0.0000852311       -0.0251110549
  O        -0.0009634344        0.0006563098        0.0204756629
       3
 i =        5, time =        2.500, E =       -37.7643653738
  C         0.0001946100       -0.0006291736        0.0054048350
  O         0.0009378266        0.0001038358       -0.0220569815
  O        -0.0012157414        0.0008293034        0.0167996335
       3
 i =        6, time =        3.000, E =       -37.7644818338
  C         0.0002368959       -0.0007630989        0.0057295454
  O         0.0011386649        0.0001200752       -0.0185757417
  O        -0.0014725970        0.0010057932        0.0129850223
       3
 i =        7, time =        3.500, E =       -37.7645779029
  C         0.0002781575       -0.0008982898        0.0057484874
  O         0.0013472507        0.0001329593       -0.0147286152
  O        -0.0017333272        0.0011850771        0.0090963165
       3
 i =        8, time =        4.000, E =       -37.7646476235
  C         0.0003175428       -0.0010338063        0.0054722141
  O         0.0015643330        0.0001420346       -0.0105753501
  O        -0.0019971136        0.0013669610        0.0051852935
       3
 i =        9, time =        4.500, E =       -37.7646864576
  C         0.0003542251       -0.0011682087        0.0049308147
  O         0.0017897912        0.0001466264       -0.0061843631
  O        -0.0022619214        0.0015505013        0.0012951566
       3
 i =       10, time =        5.000, E =       -37.7646915648
  C         0.0003878178       -0.0013009769        0.0041643397
  O         0.0020224993        0.0001464761       -0.0016277994
  O        -0.0025248091        0.0017344353       -0.0025358258
       3
 i =       11, time =        5.500, E =       -37.7646620366
  C         0.0004177906       -0.0014300237        0.0032205758
  O         0.0022586787        0.0001411077        0.0030124897
  O        -0.0027809638        0.0019158516       -0.0062676768
       3
 i =       12, time =        6.000, E =       -37.7645990230
  C         0.0004442570       -0.0015549000        0.0021562724
  O         0.0024936965        0.0001308148        0.0076489869
  O        -0.0030255965        0.0020926811       -0.0098646815
       3
 i =       13, time =        6.500, E =       -37.7645057339
  C         0.0004670619       -0.0016734299        0.0010251834
  O         0.0027210554        0.0001157159        0.0121921895
  O        -0.0032527874        0.0022615328       -0.0132880187
       3
 i =       14, time =        7.000, E =       -37.7643872917
  C         0.0004865326       -0.0017847670       -0.0001185700
  O         0.0029348481        0.0000970087        0.0165529969
  O        -0.0034588498        0.0024199467       -0.0165019967
       3
 i =       15, time =        7.500, E =       -37.7642504405
  C         0.0005029644       -0.0018876796       -0.0012281925
  O         0.0031295501        0.0000755063        0.0206444570
  O        -0.0036409743        0.0025656202       -0.0194683090
       3
 i =       16, time =        8.000, E =       -37.7641031256
  C         0.0005169298       -0.0019812225       -0.0022482769
  O         0.0033008106        0.0000516660        0.0243801341
  O        -0.0037973627        0.0026968880       -0.0221592977
       3
 i =       17, time =        8.500, E =       -37.7639539705
  C         0.0005288404       -0.0020644816       -0.0031466656
  O         0.0034461868        0.0000260589        0.0276914413
  O        -0.0039276715        0.0028126947       -0.0245431988
       3
 i =       18, time =        9.000, E =       -37.7638117039
  C         0.0005391569       -0.0021366471       -0.0038925260
  O         0.0035646095       -0.0000011575        0.0305170920
  O        -0.0040320480        0.0029125533       -0.0265941526
       3
 i =       19, time =        9.500, E =       -37.7636845864
  C         0.0005483691       -0.0021970787       -0.0044589904
  O         0.0036565344       -0.0000299671        0.0328073448
  O        -0.0041114021        0.0029963635       -0.0282929884
       3
 i =       20, time =       10.000, E =       -37.7635798805
  C         0.0005568519       -0.0022452405       -0.0048301144
  O         0.0037231839       -0.0000605076        0.0345268602
  O        -0.0041672351        0.0030642251       -0.0296230179
       3
 i =       21, time =       10.500, E =       -37.7635034050
  C         0.0005649192       -0.0022807399       -0.0049961958
  O         0.0037661056       -0.0000929658        0.0356521015
  O        -0.0042013731        0.0031165032       -0.0305720992
       3
 i =       22, time =       11.000, E =       -37.7634591974
  C         0.0005728228       -0.0023033082       -0.0049544041
  O         0.0037867895       -0.0001274635        0.0361707705
  O        -0.0042152457        0.0031535424       -0.0311313227
       3
 i =       23, time =       11.500, E =       -37.7634492993
  C         0.0005807308       -0.0023128107       -0.0047084234
  O         0.0037864039       -0.0001639568        0.0360806889
  O        -0.0042099278        0.0031755291       -0.0312945573
       3
 i =       24, time =       12.000, E =       -37.7634736664
  C         0.0005887051       -0.0023092408       -0.0042682115
  O         0.0037657318       -0.0002021770        0.0353890384
  O        -0.0041864153        0.0031825270       -0.0310582034
       3
 i =       25, time =       12.500, E =       -37.7635302021
  C         0.0005966997       -0.0022927203       -0.0036497670
  O         0.0037252611       -0.0002416362        0.0341120413
  O        -0.0041456189        0.0031745132       -0.0304211322
       3
 i =       26, time =       13.000, E =       -37.7636149104
  C         0.0006045550       -0.0022634985       -0.0028749712
  O         0.0036653457       -0.0002816459        0.0322750694
  O        -0.0040882894        0.0031513996       -0.0293849437
       3
 i =       27, time =       13.500, E =       -37.7637221573
  C         0.0006119936       -0.0022219487       -0.0019713896
  O         0.0035864137       -0.0003213830        0.0299129527
  O        -0.0040149440        0.0031130549       -0.0279544644
       3
 i =       28, time =       14.000, E =       -37.7638450280
  C         0.0006185783       -0.0021685990       -0.0009749331
  O         0.0034892170       -0.0003600122        0.0270725087
  O        -0.0039260714        0.0030594219       -0.0261376087
       3
 i =       29, time =       14.500, E =       -37.7639757608
  C         0.0006239182       -0.0021039935        0.0000842042
  O         0.0033748520       -0.0003968621        0.0238028807
  O        -0.0038225193        0.0029905644       -0.0239499546
       3
 i =       30, time =       15.000, E =       -37.7641062296
  C         0.0006273383       -0.0020289087        0.0011590367
  O         0.0032453454       -0.0004313440        0.0201706100
  O        -0.0037054399        0.0029068923       -0.0214077642
       3
 i =       31, time =       15.500, E =       -37.7642284462
  C         0.0006280653       -0.0019440828        0.0022018703
  O         0.0031036896       -0.0004631940        0.0162470250
  O        -0.0035756985        0.0028090499       -0.0185322370
       3
 i =       32, time =       16.000, E =       -37.7643350448
  C         0.0006253484       -0.0018504887        0.0031656544
  O         0.0029535044       -0.0004924403        0.0121104606
  O        -0.0034345454        0.0026981327       -0.0153533225
       3
 i =       33, time =       16.500, E =       -37.7644197138
  C         0.0006184009       -0.0017490657        0.0040044566
  O         0.0027984690       -0.0005194996        0.0078396356
  O        -0.0032838222        0.0025756242       -0.0119038893
       3
 i =       34, time =       17.000, E =       -37.7644775454
  C         0.0006064260       -0.0016408485        0.0046725404
  O         0.0026422200       -0.0005450166        0.0035163266
  O        -0.0031259813        0.0024435065       -0.0082219822
       3
 i =       35, time =       17.500, E =       -37.7645052838
  C         0.0005886241       -0.0015265852        0.0051292674
  O         0.0024881995       -0.0005699254       -0.0007804300
  O        -0.0029635714        0.0023037582       -0.0043497829
       3
 i =       36, time =       18.000, E =       -37.7645014635
  C         0.0005646671       -0.0014081156        0.0053423014
  O         0.0023394981       -0.0005948663       -0.0049785830
  O        -0.0027996147        0.0021594933       -0.0003318673
       3
 i =       37, time =       18.500, E =       -37.7644664412
  C         0.0005340419       -0.0012860110        0.0052882383
  O         0.0021985406       -0.0006209585       -0.0090076680
  O        -0.0026359562        0.0020127730        0.0037795732
       3
 i =       38, time =       19.000, E =       -37.7644023353
  C         0.0004968367       -0.0011617881        0.0049590915
  O         0.0020672410       -0.0006494947       -0.0128114953
  O        -0.0024747240        0.0018662595        0.0079325886
       3
 i =       39, time =       19.500, E =       -37.7643129063
  C         0.0004530868       -0.0010358793        0.0043588482
  O         0.0019467772       -0.0006818553       -0.0163330116
  O        -0.0023175767        0.0017217536        0.0120637962
       3
 i =       40, time =       20.000, E =       -37.7642033763
  C         0.0004035176       -0.0009096207        0.0035108488
  O         0.0018385156       -0.0007183584       -0.0195276112
  O        -0.0021664944        0.0015817279        0.0161038867
       3
 i =       41, time =       20.500, E =       -37.7640801631
  C         0.0003491172       -0.0007839517        0.0024520362
  O         0.0017433280       -0.0007587390       -0.0223574233
  O        -0.0020239840        0.0014469974        0.0199782707
       3
 i =       42, time =       21.000, E =       -37.7639505301
  C         0.0002912445       -0.0006596750        0.0012369541
  O         0.0016622876       -0.0008034546       -0.0248017000
  O        -0.0018929837        0.0013185629        0.0236142304
       3
 i =       43, time =       21.500, E =       -37.7638222101
  C         0.0002314205       -0.0005374850       -0.0000693780
  O         0.0015965121       -0.0008527520       -0.0268450153
  O        -0.0017758325        0.0011973214        0.0269347581
       3
 i =       44, time =       22.000, E =       -37.7637030289
  C         0.0001714769       -0.0004178887       -0.0013934445
  O         0.0015457632       -0.0009056589       -0.0284736871
  O        -0.0016746407        0.0010825415        0.0298552067
       3
 i =       45, time =       22.500, E =       -37.7636004308
  C         0.0001133369       -0.0003013218       -0.0026527570
  O         0.0015091604       -0.0009616159       -0.0296871187
  O        -0.0015900106        0.0009741860        0.0322958053
       3
 i =       46, time =       23.000, E =       -37.7635210083
  C         0.0000587729       -0.0001879836       -0.0037717524
  O         0.0014856980       -0.0010203414       -0.0304771412
  O        -0.0015226214        0.0008722056        0.0341751236
       3
 i =       47, time =       23.500, E =       -37.7634699998
  C         0.0000093889       -0.0000778486       -0.0046809890
  O         0.0014748866       -0.0010815741       -0.0308509040
  O        -0.0014734908        0.0007761719        0.0354336480
       3
 i =       48, time =       24.000, E =       -37.7634508457
  C        -0.0000335759        0.0000293463       -0.0053238605
  O         0.0014765296       -0.0011448906       -0.0308255813
  O        -0.0014434371        0.0006851716        0.0360348897
       3
 i =       49, time =       24.500, E =       -37.7634649123
  C        -0.0000692927        0.0001339877       -0.0056611179
  O         0.0014903951       -0.0012100069       -0.0304163054
  O        -0.0014329996        0.0005986154        0.0359552943
       3
 i =       50, time =       25.000, E =       -37.7635113596
  C        -0.0000974668        0.0002366403       -0.0056738314
  O         0.0015163035       -0.0012770492       -0.0296368668
  O        -0.0014421621        0.0005159423        0.0351916691
       3
 i =       51, time =       25.500, E =       -37.7635871714
  C        -0.0001183041        0.0003379151       -0.0053646088
  O         0.0015540305       -0.0013462855       -0.0284982246
  O        -0.0014705281        0.0004368295        0.0337576219
       3
 i =       52, time =       26.000, E =       -37.7636873575
  C        -0.0001324710        0.0004383688       -0.0047570338
  O         0.0016034006       -0.0014175606       -0.0270157015
  O        -0.0015176548        0.0003609470        0.0316883990
       3
 i =       53, time =       26.500, E =       -37.7638053582
  C        -0.0001412212        0.0005385967       -0.0038933438
  O         0.0016651960       -0.0014908652       -0.0252128636
  O        -0.0015827271        0.0002877366        0.0290511898
       3
 i =       54, time =       27.000, E =       -37.7639335790
  C        -0.0001459728        0.0006392507       -0.0028320087
  O         0.0017399259       -0.0015669947       -0.0231063803
  O        -0.0016655563        0.0002160811        0.0259191475
       3
 i =       55, time =       27.500, E =       -37.7640639448
  C        -0.0001483442        0.0007405690       -0.0016364080
  O         0.0018277889       -0.0016465592       -0.0207149187
  O        -0.0017645876        0.0001458913        0.0223715687
       3
 i =       56, time =       28.000, E =       -37.7641884676
  C        -0.0001501568        0.0008427108       -0.0003799457
  O         0.0019284271       -0.0017295792       -0.0180539611
  O        -0.0018771384        0.0000762848        0.0184919723
       3
 i =       57, time =       28.500, E =       -37.7642997262
  C        -0.0001531255        0.0009454928        0.0008636565
  O         0.0020408817       -0.0018153450       -0.0151382026
  O        -0.0020002305        0.0000067471        0.0143659084
       3
 i =       58, time =       29.000, E =       -37.7643913071
  C        -0.0001587419        0.0010485476        0.0020280068
  O         0.0021642273       -0.0019035786       -0.0119881239
  O        -0.0021306620       -0.0000631600        0.0100767736
       3
 i =       59, time =       29.500, E =       -37.7644581695
  C        -0.0001681045        0.0011509285        0.0030554296
  O         0.0022972176       -0.0019928461       -0.0086365452
  O        -0.0022663439       -0.0001337887        0.0057106939
       3
 i =       60, time =       30.000, E =       -37.7644968924
  C        -0.0001822259        0.0012525474        0.0039011502
  O         0.0024395213       -0.0020818326       -0.0051165195
  O        -0.0024055061       -0.0002056756        0.0013448113
       3
 i =       61, time =       30.500, E =       -37.7645057928
  C        -0.0002015691        0.0013517925        0.0045284187
  O         0.0025888320       -0.0021685823       -0.0014676475
  O        -0.0025454918       -0.0002791552       -0.0029434483
       3
 i =       62, time =       31.000, E =       -37.7644849494
  C        -0.0002263178        0.0014481365        0.0049189388
  O         0.0027432532       -0.0022515767        0.0022679487
  O        -0.0026841217       -0.0003545268       -0.0070909745
       3
 i =       63, time =       31.500, E =       -37.7644361549
  C        -0.0002561199        0.0015395013        0.0050645066
  O         0.0029003337       -0.0023281036        0.0060369444
  O        -0.0028187987       -0.0004310550       -0.0110324863
       3
 i =       64, time =       32.000, E =       -37.7643627881
  C        -0.0002904959        0.0016249458        0.0049715336
  O         0.0030578092       -0.0023961512        0.0097833683
  O        -0.0029475306       -0.0005082768       -0.0147147023
       3
 i =       65, time =       32.500, E =       -37.7642696091
  C        -0.0003286870        0.0017031135        0.0046542280
  O         0.0032129006       -0.0024536463        0.0134447089
  O        -0.0030685279       -0.0005854404       -0.0180852719
       3
 i =       66, time =       33.000, E =       -37.7641624822
  C        -0.0003696810        0.0017726814        0.0041372013
  O         0.0033629519       -0.0024987055        0.0169578327
  O        -0.0031803094       -0.0006615409       -0.0211025638
       3
 i =       67, time =       33.500, E =       -37.7640480419
  C        -0.0004123681        0.0018324684        0.0034504315
  O         0.0035056820       -0.0025299455        0.0202589418
  O        -0.0032815809       -0.0007355807       -0.0237305711
       3
 i =       68, time =       34.000, E =       -37.7639333154
  C        -0.0004555269        0.0018814650        0.0026310728
  O         0.0036390408       -0.0025464611        0.0232874344
  O        -0.0033714710       -0.0008066003       -0.0259450423
       3
 i =       69, time =       34.500, E =       -37.7638253260
  C        -0.0004979570        0.0019187419        0.0017165507
  O         0.0037614491       -0.0025477171        0.0259855778
  O        -0.0034494831       -0.0008736761       -0.0277261419
       3
 i =       70, time =       35.000, E =       -37.7637306957
  C        -0.0005384358        0.0019436000        0.0007488808
  O         0.0038718684       -0.0025335404        0.0283007549
  O        -0.0035154855       -0.0009360241       -0.0290645404
       3
 i =       71, time =       35.500, E =       -37.7636552717
  C        -0.0005759851        0.0019554675       -0.0002395986
  O         0.0039694762       -0.0025039889        0.0301906533
  O        -0.0035692996       -0.0009929209       -0.0299520018
       3
 i =       72, time =       36.000, E =       -37.7636037967
  C        -0.0006094590        0.0019540853       -0.0012029877
  O         0.0040533103       -0.0024593168        0.0316146659
  O        -0.0036108598       -0.0010438592       -0.0303957230
       3
 i =       73, time =       36.500, E =       -37.7635796412
  C        -0.0006380179        0.0019393272       -0.0021074785
  O         0.0041223571       -0.0023998701        0.0325435394
  O        -0.0036398106       -0.0010884008       -0.0304021539
       3
 i =       74, time =       37.000, E =       -37.7635846081
  C        -0.0006608895        0.0019113016       -0.0029175918
  O         0.0041755092       -0.0023260614        0.0329537378
  O        -0.0036557032       -0.0011262327       -0.0299850598
       3
 i =       75, time =       37.500, E =       -37.7636188208
  C        -0.0006775101        0.0018703121       -0.0036039150
  O         0.0042114853       -0.0022383099        0.0328307954
  O        -0.0036579236       -0.0011570927       -0.0291610758
       3
 i =       76, time =       38.000, E =       -37.7636806999
  C        -0.0006874523        0.0018168631       -0.0041390901
  O         0.0042287008       -0.0021370343        0.0321673585
  O        -0.0036457314       -0.0011807315       -0.0279517219
       3
 i =       77, time =       38.500, E =       -37.7637670333
  C        -0.0006904651        0.0017516282       -0.0045007964
  O         0.0042253419       -0.0020227698        0.0309648622
  O        -0.0036181606       -0.0011969006       -0.0263819362
       3
 i =       78, time =       39.000, E =       -37.7638731410
  C        -0.0006864853        0.0016754512       -0.0046719922
  O         0.0041995491       -0.0018963047        0.0292340230
  O        -0.0035742663       -0.0012053913       -0.0244802327
       3
 i =       79, time =       39.500, E =       -37.7639931308
  C        -0.0006756569        0.0015893188       -0.0046417146
  O         0.0041496349       -0.0017586112        0.0269956954
  O        -0.0035134581       -0.0012060750       -0.0222785744
       3
 i =       80, time =       40.000, E =       -37.7641202395
  C        -0.0006583254        0.0014943444       -0.0044058890
  O         0.0040746498       -0.0016109219        0.0242816357
  O        -0.0034357252       -0.0011988640       -0.0198119922
       3
 i =       81, time =       40.500, E =       -37.7642472425
  C        -0.0006350197        0.0013917763       -0.0039692817
  O         0.0039750551       -0.0014548310        0.0211364921
  O        -0.0033416886       -0.0011837590       -0.0171183701
       3
 i =       82, time =       41.000, E =       -37.7643669076
  C        -0.0006063692        0.0012828468       -0.0033410086
  O         0.0038520552       -0.0012923602        0.0176099475
  O        -0.0032324222       -0.0011610062       -0.0142354931
       3
 i =       83, time =       41.500, E =       -37.7644724593
  C        -0.0005732746        0.0011689222       -0.0025445662
  O         0.0037084116       -0.0011259773        0.0137689819
  O        -0.0031096782       -0.0011311467       -0.0112032568
       3
 i =       84, time =       42.000, E =       -37.7645580244
  C        -0.0005367064        0.0010513722       -0.0016086201
  O         0.0035474996       -0.0009581591        0.0096844900
  O        -0.0029753988       -0.0010948211       -0.0080602363
       3
 i =       85, time =       42.500, E =       -37.7646190136
  C        -0.0004976901        0.0009313689       -0.0005702984
  O         0.0033725538       -0.0007908555        0.0054334538
  O        -0.0028317249       -0.0010526110       -0.0048437265
       3
 i =       86, time =       43.000, E =       -37.7646524112
  C        -0.0004575983        0.0008104837        0.0005187414
  O         0.0031878007       -0.0006257987        0.0010987271
  O        -0.0026811273       -0.0010054159       -0.0015835956
       3
 i =       87, time =       43.500, E =       -37.7646569546
  C        -0.0004172930        0.0006894162        0.0016126158
  O         0.0029962215       -0.0004641702       -0.0032395076
  O        -0.0025252412       -0.0009541059        0.0016853403
       3
 i =       88, time =       44.000, E =       -37.7646331923
  C        -0.0003779388        0.0005692713        0.0026518785
  O         0.0028018286       -0.0003068928       -0.0074984625
  O        -0.0023666203       -0.0008997888        0.0049374060
       3
 i =       89, time =       44.500, E =       -37.7645834242
  C        -0.0003406598        0.0004512490        0.0035822550
  O         0.0026088150       -0.0001544218       -0.0115979196
  O        -0.0022080882       -0.0008436104        0.0081431830
       3
 i =       90, time =       45.000, E =       -37.7645115242
  C        -0.0003058152        0.0003353339        0.0043466831
  O         0.0024188543       -0.0000062760       -0.0154607157
  O        -0.0020507501       -0.0007862205        0.0112783133
       3
 i =       91, time =       45.500, E =       -37.7644226589
  C        -0.0002739136        0.0002220231        0.0048980506
  O         0.0022326220        0.0001381996       -0.0190158388
  O        -0.0018952220       -0.0007283409        0.0143143863
       3
 i =       92, time =       46.000, E =       -37.7643229419
  C        -0.0002451014        0.0001114143        0.0051979256
  O         0.0020502944        0.0002796698       -0.0221929373
  O        -0.0017415294       -0.0006702288        0.0172165912
       3
 i =       93, time =       46.500, E =       -37.7642190450
  C        -0.0002192194        0.0000034860        0.0052208524
  O         0.0018713795        0.0004186530       -0.0249312078
  O        -0.0015895811       -0.0006126731        0.0199470255
       3
 i =       94, time =       47.000, E =       -37.7641177444
  C        -0.0001958260       -0.0001020029        0.0049583653
  O         0.0016946347        0.0005557600       -0.0271837092
  O        -0.0014389366       -0.0005561223        0.0224660583
       3
 i =       95, time =       47.500, E =       -37.7640254946
  C        -0.0001743060       -0.0002053973        0.0044169349
  O         0.0015187112        0.0006917411       -0.0289150245
  O        -0.0012890357       -0.0005009578        0.0247316412
       3
 i =       96, time =       48.000, E =       -37.7639480272
  C        -0.0001538035       -0.0003070863        0.0036255890
  O         0.0013417021        0.0008268699       -0.0301178538
  O        -0.0011392496       -0.0004473337        0.0267073808
       3
 i =       97, time =       48.500, E =       -37.7638900577
  C        -0.0001334907       -0.0004074703        0.0026263293
  O         0.0011619888        0.0009610720       -0.0307844370
  O        -0.0009883986       -0.0003951518        0.0283467201
       3
 i =       98, time =       49.000, E =       -37.7638550770
  C        -0.0001125666       -0.0005069290        0.0014793267
  O         0.0009788233        0.0010945088       -0.0309192032
  O        -0.0008359878       -0.0003444871        0.0295968205
       3
 i =       99, time =       49.500, E =       -37.7638451702
  C        -0.0000903368       -0.0006057617        0.0002454279
  O         0.0007916203        0.0012271513       -0.0305377328
  O        -0.0006819131       -0.0002955030        0.0304146439
       3
 i =      100, time =       50.000, E =       -37.7638609152
  C        -0.0000662685       -0.0007041580       -0.0009977780
  O         0.0006000975        0.0013588434       -0.0296751840
  O        -0.0005260140       -0.0002483521        0.0307605279
       3
 i =      101, time =       50.500, E =       -37.7639013717
  C        -0.0000400808       -0.0008021974       -0.0021774051
  O         0.0004042345        0.0014895146       -0.0283752102
  O        -0.0003681448       -0.0002031470        0.0306079481
       3
 i =      102, time =       51.000, E =       -37.7639641454
  C        -0.0000117404       -0.0008997814       -0.0032187909
  O         0.0002041665        0.0016189055       -0.0266883776
  O        -0.0002080577       -0.0001601407        0.0299350578
       3
 i =      103, time =       51.500, E =       -37.7640455338
  C         0.0000185291       -0.0009966513       -0.0040699703
  O         0.0000001380        0.0017466601       -0.0246698797
  O        -0.0000453859       -0.0001198850        0.0287477107
       3
 i =      104, time =       52.000, E =       -37.7641407434
  C         0.0000503313       -0.0010925452       -0.0046802780
  O        -0.0002076787        0.0018733246       -0.0223710719
  O         0.0001203660       -0.0000825346        0.0270488574
       3
 i =      105, time =       52.500, E =       -37.7642441000
  C         0.0000831147       -0.0011870312       -0.0050259786
  O        -0.0004193677        0.0019992587       -0.0198311498
  O         0.0002900155       -0.0000482443        0.0248544356
       3
 i =      106, time =       53.000, E =       -37.7643493546
  C         0.0001162329       -0.0012794798       -0.0050904796
  O        -0.0006349513        0.0021240917       -0.0170957994
  O         0.0004646540       -0.0000177239        0.0221935043
       3
 i =      107, time =       53.500, E =       -37.7644500625
  C         0.0001490237       -0.0013691785       -0.0048825619
  O        -0.0008544317        0.0022474590       -0.0142076566
  O         0.0006455867        0.0000083329        0.0191158883
       3
 i =      108, time =       54.000, E =       -37.7645399786
  C         0.0001808776       -0.0014553472       -0.0044214989
  O        -0.0010776782        0.0023686632       -0.0112068331
  O         0.0008338760        0.0000293205        0.0156782021
       3
 i =      109, time =       54.500, E =       -37.7646134656
  C         0.0002113075       -0.0015371800       -0.0037426327
  O        -0.0013046725        0.0024873768       -0.0081290949
  O         0.0010304053        0.0000449818        0.0119484310
       3
 i =      110, time =       55.000, E =       -37.7646658418
  C         0.0002398953       -0.0016135350       -0.0028901898
  O        -0.0015349687        0.0026034572       -0.0050043237
  O         0.0012355771        0.0000554819        0.0079964457
       3
 i =      111, time =       55.500, E =       -37.7646936718
  C         0.0002665318       -0.0016847295       -0.0019175414
  O        -0.0017678783        0.0027166513       -0.0018551180
  O         0.0014496230        0.0000611961        0.0038935120
       3
 i =      112, time =       56.000, E =       -37.7646950030
  C         0.0002910275       -0.0017488622       -0.0008761233
  O        -0.0020011888        0.0028243938        0.0012881485
  O         0.0016708367        0.0000619044       -0.0002824248
       3