       3
 i =        0, time =        0.000, E =       -37.7637405868
  C        -0.0000097260        0.0000350930       -0.0000242382
  O        -0.0000936931        0.0000186417       -0.0000602677
  O         0.0001009943       -0.0000449859        0.0000784632
       3
 i =        1, time =        0.500, E =       -37.7638451917
  C        -0.0000096519        0.0000349543       -0.0000235233
  O        -0.0000934427        0.0000186126       -0.0000827757
  O         0.0001007111       -0.0000448404        0.0001004503
       3
 i =        2, time =        1.000, E =       -37.7639675570
  C        -0.0000095829        0.0000347140       -0.0000215215
  O        -0.0000930620        0.0000185990       -0.0001042792
  O         0.0001002603       -0.0000445810        0.0001204979
       3
 i =        3, time =        1.500, E =       -37.7641003072
  C        -0.0000094778        0.0000343565       -0.0000183654
  O        -0.0000925495        0.0000186004       -0.0001244248
  O         0.0000996385       -0.0000442054        0.0001383475
       3
 i =        4, time =        2.000, E =       -37.7642356016
  C        -0.0000093345        0.0000338787       -0.0000142503
  O        -0.0000919029        0.0000186159       -0.0001428680
  O         0.0000988422       -0.0000437111        0.0001537938
       3
 i =        5, time =        2.500, E =       -37.7643653738
  C        -0.0000091518        0.0000332779       -0.0000094199
  O        -0.0000911191        0.0000186446       -0.0001592726
  O         0.0000978679       -0.0000430954        0.0001666739
       3
 i =        6, time =        3.000, E =       -37.7644818338
  C        -0.0000089292        0.0000325519       -0.0000041496
  O        -0.0000901939        0.0000186850       -0.0001733243
  O         0.0000967120       -0.0000423559        0.0001768699
       3
 i =        7, time =        3.500, E =       -37.7645779029
  C        -0.0000086673        0.0000316992        0.0000012717
  O        -0.0000891220        0.0000187348       -0.0001847452
  O         0.0000953714       -0.0000414903        0.0001843104
       3
 i =        8, time =        4.000, E =       -37.7646476235
  C        -0.0000083676        0.0000307193        0.0000065600
  O        -0.0000878978        0.0000187915       -0.0001933013
  O         0.0000938438       -0.0000404968        0.0001889656
       3
 i =        9, time =        4.500, E =       -37.7646864576
  C        -0.0000080323        0.0000296128        0.0000114508
  O        -0.0000865154        0.0000188520       -0.0001988048
  O         0.0000921279       -0.0000393742        0.0001908401
       3
 i =       10, time =        5.000, E =       -37.7646915648
  C        -0.0000076641        0.0000283813        0.0000157134
  O        -0.0000849697        0.0000189129       -0.0002011188
  O         0.0000902244       -0.0000381220        0.0001899678
       3
 i =       11, time =        5.500, E =       -37.7646620366
  C        -0.0000072665        0.0000270278        0.0000191590
  O        -0.0000832572        0.0000189709       -0.0002001622
  O         0.0000881371       -0.0000367415        0.0001864111
       3
 i =       12, time =        6.000, E =       -37.7645990230
  C        -0.0000068429        0.0000255564        0.0000216488
  O        -0.0000813780        0.0000190222       -0.0001959147
  O         0.0000858732       -0.0000352357        0.0001802597
       3
 i =       13, time =        6.500, E =       -37.7645057339
  C        -0.0000063967        0.0000239727        0.0000230966
  O        -0.0000793360        0.0000190636       -0.0001884195
  O         0.0000834439       -0.0000336096        0.0001716302
       3
 i =       14, time =        7.000, E =       -37.7643872917
  C        -0.0000059314        0.0000222835        0.0000234674
  O        -0.0000771397        0.0000190921       -0.0001777836
  O         0.0000808639       -0.0000318703        0.0001606657
       3
 i =       15, time =        7.500, E =       -37.7642504405
  C        -0.0000054502        0.0000204967        0.0000227741
  O        -0.0000748017        0.0000191058       -0.0001641766
  O         0.0000781501       -0.0000300266        0.0001475355
       3
 i =       16, time =        8.000, E =       -37.7641031256
  C        -0.0000049556        0.0000186212        0.0000210780
  O        -0.0000723381        0.0000191028       -0.0001478292
  O         0.0000753214       -0.0000280886        0.0001324321
       3
 i =       17, time =        8.500, E =       -37.7639539705
  C        -0.0000044501        0.0000166667        0.0000184812
  O        -0.0000697673        0.0000190820       -0.0001290261
  O         0.0000723969       -0.0000260677        0.0001155683
       3
 i =       18, time =        9.000, E =       -37.7638117039
  C        -0.0000039353        0.0000146438        0.0000151156
  O        -0.0000671090        0.0000190425       -0.0001080975
  O         0.0000693961       -0.0000239753        0.0000971764
       3
 i =       19, time =        9.500, E =       -37.7636845864
  C        -0.0000034125        0.0000125634        0.0000111398
  O        -0.0000643829        0.0000189831       -0.0000854110
  O         0.0000663378       -0.0000218231        0.0000775038
       3
 i =       20, time =       10.000, E =       -37.7635798805
  C        -0.0000028828        0.0000104372        0.0000067321
  O        -0.0000616079        0.0000189029       -0.0000613633
  O         0.0000632396       -0.0000196228        0.0000568095
       3
 i =       21, time =       10.500, E =       -37.7635034050
  C        -0.0000023467        0.0000082770        0.0000020824
  O        -0.0000588017        0.0000188009       -0.0000363702
  O         0.0000601181       -0.0000173857        0.0000353614
       3
 i =       22, time =       11.000, E =       -37.7634591974
  C        -0.0000018044        0.0000060950       -0.0000026142
  O        -0.0000559809        0.0000186757       -0.0000108587
  O         0.0000569883       -0.0000151229        0.0000134340
       3
 i =       23, time =       11.500, E =       -37.7634492993
  C        -0.0000012560        0.0000039034       -0.0000071634
  O        -0.0000531609        0.0000185260        0.0000147405
  O         0.0000538643       -0.0000128451       -0.0000086940
       3
 i =       24, time =       12.000, E =       -37.7634736664
  C        -0.0000007015        0.0000017146       -0.0000113780
  O        -0.0000503563        0.0000183505        0.0000399996
  O         0.0000507591       -0.0000105630       -0.0000307413
       3
 i =       25, time =       12.500, E =       -37.7635302021
  C        -0.0000001409       -0.0000004594       -0.0000150831
  O        -0.0000475810        0.0000181483        0.0000645003
  O         0.0000476852       -0.0000082870       -0.0000524255
       3
 i =       26, time =       13.000, E =       -37.7636149104
  C         0.0000004258       -0.0000026064       -0.0000181225
  O        -0.0000448488        0.0000179187        0.0000878395
  O         0.0000446542       -0.0000060277       -0.0000734650
       3
 i =       27, time =       13.500, E =       -37.7637221573
  C         0.0000009983       -0.0000047149       -0.0000203633
  O        -0.0000421727        0.0000176615        0.0001096362
  O         0.0000416773       -0.0000037958       -0.0000935806
       3
 i =       28, time =       14.000, E =       -37.7638450280
  C         0.0000015761       -0.0000067735       -0.0000217029
  O        -0.0000395657        0.0000173774        0.0001295388
  O         0.0000387651       -0.0000016019       -0.0001124982
       3
 i =       29, time =       14.500, E =       -37.7639757608
  C         0.0000021581       -0.0000087714       -0.0000220699
  O        -0.0000370397        0.0000170671        0.0001472299
  O         0.0000359281        0.0000005434       -0.0001299520
       3
 i =       30, time =       15.000, E =       -37.7641062296
  C         0.0000027427       -0.0000106985       -0.0000214298
  O        -0.0000346059        0.0000167322        0.0001624335
  O         0.0000331757        0.0000026294       -0.0001456878
       3
 i =       31, time =       15.500, E =       -37.7642284462
  C         0.0000033279       -0.0000125454       -0.0000197924
  O        -0.0000322735        0.0000163744        0.0001749229
  O         0.0000305169        0.0000046460       -0.0001594652
       3
 i =       32, time =       16.000, E =       -37.7643350448
  C         0.0000039106       -0.0000143032       -0.0000172126
  O        -0.0000300495        0.0000159955        0.0001845247
  O         0.0000279599        0.0000065836       -0.0001710620
       3
 i =       33, time =       16.500, E =       -37.7644197138
  C         0.0000044871       -0.0000159643       -0.0000137889
  O        -0.0000279382        0.0000155971        0.0001911219
  O         0.0000255119        0.0000084336       -0.0001802792
       3
 i =       34, time =       17.000, E =       -37.7644775454
  C         0.0000050531       -0.0000175219       -0.0000096629
  O        -0.0000259415        0.0000151807        0.0001946547
  O         0.0000231784        0.0000101885       -0.0001869434
       3
 i =       35, time =       17.500, E =       -37.7645052838
  C         0.0000056035       -0.0000189700       -0.0000050170
  O        -0.0000240589        0.0000147469        0.0001951209
  O         0.0000209634        0.0000118424       -0.0001909106
       3
 i =       36, time =       18.000, E =       -37.7645014635
  C         0.0000061326       -0.0000203039       -0.0000000671
  O        -0.0000222875        0.0000142961        0.0001925727
  O         0.0000188690        0.0000133910       -0.0001920684
       3
 i =       37, time =       18.500, E =       -37.7644664412
  C         0.0000066343       -0.0000215202        0.0000049446
  O        -0.0000206224        0.0000138280        0.0001871127
  O         0.0000168953        0.0000148321       -0.0001903394
       3
 i =       38, time =       19.000, E =       -37.7644023353
  C         0.0000071025       -0.0000226165        0.0000097622
  O        -0.0000190574        0.0000133413        0.0001788892
  O         0.0000150414        0.0000161651       -0.0001856840
       3
 i =       39, time =       19.500, E =       -37.7643129063
  C         0.0000075310       -0.0000235912        0.0000141283
  O        -0.0000175852        0.0000128340        0.0001680902
  O         0.0000133046        0.0000173910       -0.0001781040
       3
 i =       40, time =       20.000, E =       -37.7642033763
  C         0.0000079143       -0.0000244438        0.0000177996
  O        -0.0000161976        0.0000123033        0.0001549397
  O         0.0000116814        0.0000185125       -0.0001676487
       3
 i =       41, time =       20.500, E =       -37.7640801631
  C         0.0000082473       -0.0000251748        0.0000205615
  O        -0.0000148854        0.0000117467        0.0001396906
  O         0.0000101663        0.0000195333       -0.0001544181
       3
 i =       42, time =       21.000, E =       -37.7639505301
  C         0.0000085263       -0.0000257857        0.0000222437
  O        -0.0000136391        0.0000111614        0.0001226155
  O         0.0000087520        0.0000204580       -0.0001385644
       3
 i =       43, time =       21.500, E =       -37.7638222101
  C         0.0000087491       -0.0000262787        0.0000227324
  O        -0.0000124480        0.0000105444        0.0001039990
  O         0.0000074294        0.0000212917       -0.0001202922
       3
 i =       44, time =       22.000, E =       -37.7637030289
  C         0.0000089148       -0.0000266563        0.0000219799
  O        -0.0000113016        0.0000098929        0.0000841349
  O         0.0000061878        0.0000220396       -0.0000998623
       3
 i =       45, time =       22.500, E =       -37.7636004308
  C         0.0000090245       -0.0000269218        0.0000200119
  O        -0.0000101893        0.0000092048        0.0000633205
  O         0.0000050154        0.0000227066       -0.0000775925
       3
 i =       46, time =       23.000, E =       -37.7635210083
  C         0.0000090808       -0.0000270785        0.0000169284
  O        -0.0000091015        0.0000084782        0.0000418553
  O         0.0000039001        0.0000232977       -0.0000538562
       3
 i =       47, time =       23.500, E =       -37.7634699998
  C         0.0000090882       -0.0000271300        0.0000128974
  O        -0.0000080290        0.0000077112        0.0000200377
  O         0.0000028292        0.0000238175       -0.0000290755
       3
 i =       48, time =       24.000, E =       -37.7634508457
  C         0.0000090522       -0.0000270795        0.0000081460
  O        -0.0000069627        0.0000069024       -0.0000018435
  O         0.0000017893        0.0000242702       -0.0000037045
       3
 i =       49, time =       24.500, E =       -37.7634649123
  C         0.0000089794       -0.0000269298        0.0000029456
  O        -0.0000058941        0.0000060505       -0.0000235119
  O         0.0000007665        0.0000246594        0.0000217827
       3
 i =       50, time =       25.000, E =       -37.7635113596
  C         0.0000088769       -0.0000266833       -0.0000024059
  O        -0.0000048143        0.0000051542       -0.0000447023
  O        -0.0000002531        0.0000249881        0.0000469038
       3
 i =       51, time =       25.500, E =       -37.7635871714
  C         0.0000087517       -0.0000263419       -0.0000076035
  O        -0.0000037150        0.0000042122       -0.0000651584
  O        -0.0000012832        0.0000252593        0.0000711813
       3
 i =       52, time =       26.000, E =       -37.7636873575
  C         0.0000086105       -0.0000259067       -0.0000123552
  O        -0.0000025877        0.0000032229       -0.0000846339
  O        -0.0000023374        0.0000254752        0.0000941560
       3
 i =       53, time =       26.500, E =       -37.7638053582
  C         0.0000084589       -0.0000253783       -0.0000164010
  O        -0.0000014242        0.0000021852       -0.0001028965
  O        -0.0000034285        0.0000256381        0.0001154058
       3
 i =       54, time =       27.000, E =       -37.7639335790
  C         0.0000083014       -0.0000247566       -0.0000195288
  O        -0.0000002154        0.0000010973       -0.0001197281
  O        -0.0000045691        0.0000257493        0.0001345586
       3
 i =       55, time =       27.500, E =       -37.7640639448
  C         0.0000081409       -0.0000240414       -0.0000215843
  O         0.0000010479       -0.0000000429       -0.0001349235
  O        -0.0000057711        0.0000258101        0.0001512970
       3
 i =       56, time =       28.000, E =       -37.7641884676
  C         0.0000079788       -0.0000232318       -0.0000224782
  O         0.0000023745       -0.0000012376       -0.0001482898
  O        -0.0000070448        0.0000258209        0.0001653615
       3
 i =       57, time =       28.500, E =       -37.7642997262
  C         0.0000078147       -0.0000223274       -0.0000221907
  O         0.0000037729       -0.0000024889       -0.0001596450
  O        -0.0000083984        0.0000257821        0.0001765533
       3
 i =       58, time =       29.000, E =       -37.7643913071
  C         0.0000076469       -0.0000213279       -0.0000207685
  O         0.0000052511       -0.0000037984       -0.0001688200
  O        -0.0000098380        0.0000256935        0.0001847336
       3
 i =       59, time =       29.500, E =       -37.7644581695
  C         0.0000074723       -0.0000202337       -0.0000183162
  O         0.0000068159       -0.0000051672       -0.0001756653
  O        -0.0000113676        0.0000255548        0.0001898243
       3
 i =       60, time =       30.000, E =       -37.7644968924
  C         0.0000072868       -0.0000190458       -0.0000149870
  O         0.0000084736       -0.0000065951       -0.0001800554
  O        -0.0000129901        0.0000253652        0.0001918057
       3
 i =       61, time =       30.500, E =       -37.7645057928
  C         0.0000070859       -0.0000177657       -0.0000109721
  O         0.0000102298       -0.0000080812       -0.0001818910
  O        -0.0000147065        0.0000251240        0.0001907133
       3
 i =       62, time =       31.000, E =       -37.7644849494
  C         0.0000068645       -0.0000163965       -0.0000064881
  O         0.0000120884       -0.0000096229       -0.0001811029
  O        -0.0000165163        0.0000248300        0.0001866329
       3
 i =       63, time =       31.500, E =       -37.7644361549
  C         0.0000066179       -0.0000149422       -0.0000017638
  O         0.0000140516       -0.0000112166       -0.0001776560
  O        -0.0000184174        0.0000244824        0.0001796960
       3
 i =       64, time =       32.000, E =       -37.7643627881
  C         0.0000063414       -0.0000134082        0.0000029721
  O         0.0000161202       -0.0000128566       -0.0001715548
  O        -0.0000204058        0.0000240807        0.0001700761
       3
 i =       65, time =       32.500, E =       -37.7642696091
  C         0.0000060315       -0.0000118012        0.0000075010
  O         0.0000182932       -0.0000145361       -0.0001628458
  O        -0.0000224764        0.0000236249        0.0001579841
       3
 i =       66, time =       33.000, E =       -37.7641624822
  C         0.0000056850       -0.0000101289        0.0000116236
  O         0.0000205677       -0.0000162469       -0.0001516202
  O        -0.0000246232        0.0000231159        0.0001436637
       3
 i =       67, time =       33.500, E =       -37.7640480419
  C         0.0000053000       -0.0000084003        0.0000151668
  O         0.0000229390       -0.0000179795       -0.0001380139
  O        -0.0000268389        0.0000225549        0.0001273852
       3
 i =       68, time =       34.000, E =       -37.7639333154
  C         0.0000048756       -0.0000066254        0.0000179897
  O         0.0000254011       -0.0000197240       -0.0001222063
  O        -0.0000291157        0.0000219442        0.0001094394
       3
 i =       69, time =       34.500, E =       -37.7638253260
  C         0.0000044121       -0.0000048150        0.0000199872
  O         0.0000279466       -0.0000214698       -0.0001044181
  O        -0.0000314455        0.0000212863        0.0000901317
       3
 i =       70, time =       35.000, E =       -37.7637306957
  C         0.0000039108       -0.0000029805        0.0000210919
  O         0.0000305674       -0.0000232061       -0.0000849079
  O        -0.0000338197        0.0000205847        0.0000697763
       3
 i =       71, time =       35.500, E =       -37.7636552717
  C         0.0000033743       -0.0000011340        0.0000212716
  O         0.0000332546       -0.0000249223       -0.0000639666
  O        -0.0000362299        0.0000198432        0.0000486925
       3
 i =       72, time =       36.000, E =       -37.7636037967
  C         0.0000028059        0.0000007121        0.0000205310
  O         0.0000359990       -0.0000266077       -0.0000419135
  O        -0.0000386676        0.0000190659        0.0000271987
       3
 i =       73, time =       36.500, E =       -37.7635796412
  C         0.0000022099        0.0000025454        0.0000189124
  O         0.0000387903       -0.0000282520       -0.0000190911
  O        -0.0000411241        0.0000182575        0.0000056071
       3
 i =       74, time =       37.000, E =       -37.7635846081
  C         0.0000015914        0.0000043535        0.0000164905
  O         0.0000416179       -0.0000298451        0.0000041404
  O        -0.0000435904        0.0000174225       -0.0000157783
       3
 i =       75, time =       37.500, E =       -37.7636188208
  C         0.0000009561        0.0000061240        0.0000133703
  O         0.0000444699       -0.0000313771        0.0000274087
  O        -0.0000460570        0.0000165659       -0.0000366650
       3
 i =       76, time =       38.000, E =       -37.7636806999
  C         0.0000003100        0.0000078452        0.0000096832
  O         0.0000473336       -0.0000328386        0.0000503346
  O        -0.0000485142        0.0000156927       -0.0000567747
       3
 i =       77, time =       38.500, E =       -37.7637670333
  C        -0.0000003405        0.0000095058        0.0000055836
  O         0.0000501951       -0.0000342203        0.0000725377
  O        -0.0000509512        0.0000148081       -0.0000758464
       3
 i =       78, time =       39.000, E =       -37.7638731410
  C        -0.0000009886        0.0000110953        0.0000012442
  O         0.0000530390       -0.0000355134        0.0000936425
  O        -0.0000533569        0.0000139174       -0.0000936380
       3
 i =       79, time =       39.500, E =       -37.7639931308
  C        -0.0000016281        0.0000126040       -0.0000031498
  O         0.0000558485       -0.0000367097        0.0001132853
  O        -0.0000557192        0.0000130259       -0.0001099292
       3
 i =       80, time =       40.000, E =       -37.7641202395
  C        -0.0000022525        0.0000140232       -0.0000074064
  O         0.0000586062       -0.0000378017        0.0001311219
  O        -0.0000580260        0.0000121392       -0.0001245238
       3
 i =       81, time =       40.500, E =       -37.7642472425
  C        -0.0000028560        0.0000153453       -0.0000113342
  O         0.0000612942       -0.0000387830        0.0001468351
  O        -0.0000602653        0.0000112628       -0.0001372515
       3
 i =       82, time =       41.000, E =       -37.7643669076
  C        -0.0000034333        0.0000165639       -0.0000147491
  O         0.0000638952       -0.0000396483        0.0001601423
  O        -0.0000624257        0.0000104019       -0.0001479689
       3
 i =       83, time =       41.500, E =       -37.7644724593
  C        -0.0000039799        0.0000176737       -0.0000174827
  O         0.0000663934       -0.0000403941        0.0001708024
  O        -0.0000644968        0.0000095619       -0.0001565607
       3
 i =       84, time =       42.000, E =       -37.7645580244
  C        -0.0000044920        0.0000186709       -0.0000193916
  O         0.0000687753       -0.0000410186        0.0001786241
  O        -0.0000664697        0.0000087475       -0.0001629395
       3
 i =       85, time =       42.500, E =       -37.7646190136
  C        -0.0000049669        0.0000195528       -0.0000203639
  O         0.0000710298       -0.0000415216        0.0001834690
  O        -0.0000683368        0.0000079628       -0.0001670453
       3
 i =       86, time =       43.000, E =       -37.7646524112
  C        -0.0000054030        0.0000203180       -0.0000203300
  O         0.0000731483       -0.0000419043        0.0001852563
  O        -0.0000700924        0.0000072118       -0.0001688424
       3
 i =       87, time =       43.500, E =       -37.7646569546
  C        -0.0000057998        0.0000209663       -0.0000192666
  O         0.0000751252       -0.0000421689        0.0001839635
  O        -0.0000717322        0.0000064976       -0.0001683185
       3
 i =       88, time =       44.000, E =       -37.7646331923
  C        -0.0000061577        0.0000214983       -0.0000172001
  O         0.0000769574       -0.0000423185        0.0001796263
  O        -0.0000732536        0.0000058226       -0.0001654833
       3
 i =       89, time =       44.500, E =       -37.7645834242
  C        -0.0000064782        0.0000219159       -0.0000142108
  O         0.0000786447       -0.0000423568        0.0001723388
  O        -0.0000746561        0.0000051885       -0.0001603662
       3
 i =       90, time =       45.000, E =       -37.7645115242
  C        -0.0000067636        0.0000222214       -0.0000104312
  O         0.0000801894       -0.0000422875        0.0001622507
  O        -0.0000759406        0.0000045963       -0.0001530162
       3
 i =       91, time =       45.500, E =       -37.7644226589
  C        -0.0000070166        0.0000224173       -0.0000060423
  O         0.0000815945       -0.0000421138        0.0001495643
  O        -0.0000771088        0.0000040466       -0.0001435010
       3
 i =       92, time =       46.000, E =       -37.7643229419
  C        -0.0000072400        0.0000225068       -0.0000012654
  O         0.0000828634       -0.0000418387        0.0001345313
  O        -0.0000781626        0.0000035395       -0.0001319106
       3
 i =       93, time =       46.500, E =       -37.7642190450
  C        -0.0000074369        0.0000224926        0.0000036492
  O         0.0000839996       -0.0000414647        0.0001174489
  O        -0.0000791041        0.0000030749       -0.0001183605
       3
 i =       94, time =       47.000, E =       -37.7641177444
  C        -0.0000076099        0.0000223778        0.0000084360
  O         0.0000850059       -0.0000409938        0.0000986517
  O        -0.0000799352        0.0000026519       -0.0001029934
       3
 i =       95, time =       47.500, E =       -37.7640254946
  C        -0.0000077612        0.0000221648        0.0000128293
  O         0.0000858842       -0.0000404276        0.0000785019
  O        -0.0000806572        0.0000022698       -0.0000859798
       3
 i =       96, time =       48.000, E =       -37.7639480272
  C        -0.0000078923        0.0000218559        0.0000165811
  O         0.0000866353       -0.0000397674        0.0000573754
  O        -0.0000812712        0.0000019274       -0.0000675176
       3
 i =       97, time =       48.500, E =       -37.7638900577
  C        -0.0000080038        0.0000214528        0.0000194776
  O         0.0000872585       -0.0000390142        0.0000356520
  O        -0.0000817777        0.0000016235       -0.0000478327
       3
 i =       98, time =       49.000, E =       -37.7638550770
  C        -0.0000080956        0.0000209570        0.0000213540
  O         0.0000877524       -0.0000381690        0.0000137112
  O        -0.0000821761        0.0000013568       -0.0000271856
       3
 i =       99, time =       49.500, E =       -37.7638451702
  C        -0.0000081669        0.0000203695        0.0000221027
  O         0.0000881149       -0.0000372327       -0.0000080760
  O        -0.0000824660        0.0000011263       -0.0000058693
       3
 i =      100, time =       50.000, E =       -37.7638609152
  C        -0.0000082162        0.0000196911        0.0000216819
  O         0.0000883435       -0.0000362062       -0.0000293578
  O        -0.0000826465        0.0000009305        0.0000157946
       3
 i =      101, time =       50.500, E =       -37.7639013717
  C        -0.0000082418        0.0000189223        0.0000201206
  O         0.0000884355       -0.0000350903       -0.0000498111
  O        -0.0000827165        0.0000007680        0.0000374625
       3
 i =      102, time =       51.000, E =       -37.7639641454
  C        -0.0000082418        0.0000180639        0.0000175173
  O         0.0000883880       -0.0000338862       -0.0000691472
  O        -0.0000826746        0.0000006371        0.0000587742
       3
 i =      103, time =       51.500, E =       -37.7640455338
  C        -0.0000082142        0.0000171164        0.0000140298
  O         0.0000881984       -0.0000325949       -0.0000871154
  O        -0.0000825193        0.0000005362        0.0000793648
       3
 i =      104, time =       52.000, E =       -37.7641407434
  C        -0.0000081574        0.0000160810        0.0000098637
  O         0.0000878640       -0.0000312175       -0.0001035030
  O        -0.0000822486        0.0000004629        0.0000988735
       3
 i =      105, time =       52.500, E =       -37.7642441000
  C        -0.0000080704        0.0000149589        0.0000052594
  O         0.0000873821       -0.0000297548       -0.0001181298
  O        -0.0000818600        0.0000004153        0.0001169468
       3
 i =      106, time =       53.000, E =       -37.7643493546
  C        -0.0000079525        0.0000137520        0.0000004753
  O         0.0000867498       -0.0000282075       -0.0001308459
  O        -0.0000813502        0.0000003907        0.0001332477
       3
 i =      107, time =       53.500, E =       -37.7644500625
  C        -0.0000078038        0.0000124626       -0.0000042270
  O         0.0000859646       -0.0000265767       -0.0001415330
  O        -0.0000807151        0.0000003862        0.0001474682
       3
 i =      108, time =       54.000, E =       -37.7645399786
  C        -0.0000076249        0.0000110939       -0.0000085998
  O         0.0000850236       -0.0000248638       -0.0001501021
  O        -0.0000799501        0.0000003984        0.0001593384
       3
 i =      109, time =       54.500, E =       -37.7646134656
  C        -0.0000074171        0.0000096500       -0.0000124220
  O         0.0000839245       -0.0000230706       -0.0001564916
  O        -0.0000790495        0.0000004235        0.0001686337
       3
 i =      110, time =       55.000, E =       -37.7646658418
  C        -0.0000071819        0.0000081356       -0.0000155106
  O         0.0000826649       -0.0000211992       -0.0001606634
  O        -0.0000780077        0.0000004578        0.0001751787
       3
 i =      111, time =       55.500, E =       -37.7646936718
  C        -0.0000069212        0.0000065561       -0.0000177291
  O         0.0000812430       -0.0000192519       -0.0001625984
  O        -0.0000768187        0.0000004976        0.0001788492
       3
 i =      112, time =       56.000, E =       -37.7646950030
  C        -0.0000066370        0.0000049175       -0.0000189911
  O         0.0000796584       -0.0000172319       -0.0001622967
  O        -0.0000754772        0.0000005397        0.0001795743
       3