#     Step Nr.          Time[fs]        Kin.[a.u.]          Temp[K]            Pot.[a.u.]        Cons Qty[a.u.]        UsedTime[s]
         0            0.000000         0.000475022        50.000000000       -37.763740587       -37.763186394         0.000000000
         1            0.500000         0.000577119        60.746510335       -37.763845192       -37.763186814        10.519815292
         2            1.000000         0.000696481        73.310338072       -37.763967557       -37.763187280         1.875402753
         3            1.500000         0.000825688        86.910458740       -37.764100307       -37.763187768         1.784940816
         4            2.000000         0.000956855       100.716864872       -37.764235602       -37.763188281         1.707595322
         5            2.500000         0.001081944       113.883543748       -37.764365374       -37.763188774         1.418167705
         6            3.000000         0.001193200       125.594137917       -37.764481834       -37.763189224         1.378390873
         7            3.500000         0.001283614       135.110944690       -37.764577903       -37.763189604         1.437617836
         8            4.000000         0.001347319       141.816368620       -37.764647624       -37.763189900         1.374701827
         9            4.500000         0.001379899       145.245668711       -37.764686458       -37.763190093         1.157444919
        10            5.000000         0.001378664       145.115705868       -37.764691565       -37.763190167         1.081429256
        11            5.500000         0.001342869       141.348018677       -37.764662037       -37.763190114         1.125990001
        12            6.000000         0.001273836       134.081727307       -37.764599023       -37.763189932         1.453088143
        13            6.500000         0.001174939       123.671999940       -37.764505734       -37.763189628         1.409672187
        14            7.000000         0.001051443       110.673055153       -37.764387292       -37.763189219         1.474452232
        15            7.500000         0.000910201        95.806146203       -37.764250441       -37.763188733         1.542072007
        16            8.000000         0.000759226        79.914801734       -37.764103126       -37.763188199         1.830031123
        17            8.500000         0.000607160        63.908546864       -37.763953971       -37.763187654         1.466197884
        18            9.000000         0.000462695        48.702400218       -37.763811704       -37.763187135         1.611582777
        19            9.500000         0.000334010        35.157250708       -37.763684586       -37.763186678         1.650975097
        20           10.000000         0.000228246        24.024732717       -37.763579881       -37.763186309         1.619715220
        21           10.500000         0.000151070        15.901309488       -37.763503405       -37.763186051         1.639490691
        22           11.000000         0.000106349        11.194060599       -37.763459197       -37.763185917         1.813331544
        23           11.500000         0.000095948        10.099351393       -37.763449299       -37.763185914         1.570708476
        24           12.000000         0.000119655        12.594628330       -37.763473666       -37.763186040         1.686870338
        25           12.500000         0.000175217        18.443078645       -37.763530202       -37.763186287         1.613480192
        26           13.000000         0.000258512        27.210526843       -37.763614910       -37.763186638         1.616216274
        27           13.500000         0.000363806        38.293584392       -37.763722157       -37.763187071         1.633565386
        28           14.000000         0.000484123        50.957907939       -37.763845028       -37.763187558         1.353570794
        29           14.500000         0.000611672        64.383452632       -37.763975761       -37.763188067         1.373567837
        30           15.000000         0.000738329        77.715231073       -37.764106230       -37.763188569         1.425118351
        31           15.500000         0.000856146        90.116389499       -37.764228446       -37.763189036         1.424115030
        32           16.000000         0.000957826       100.819041987       -37.764335045       -37.763189439         1.343495041
        33           16.500000         0.001037157       109.169300734       -37.764419714       -37.763189756         1.395432248
        34           17.000000         0.001089353       114.663384125       -37.764477545       -37.763189973         1.370592083
        35           17.500000         0.001111303       116.973772414       -37.764505284       -37.763190079         1.097719617
        36           18.000000         0.001101693       115.962266341       -37.764501463       -37.763190075         1.094537118
        37           18.500000         0.001061046       111.683763254       -37.764466441       -37.763189964         1.079531229
        38           19.000000         0.000991643       104.378623265       -37.764402335       -37.763189748         1.495589993
        39           19.500000         0.000897396        94.458299680       -37.764312906       -37.763189439         1.368738193
        40           20.000000         0.000783648        82.485372101       -37.764203376       -37.763189053         1.439930859
        41           20.500000         0.000656902        69.144326688       -37.764080163       -37.763188615         1.459492656
        42           21.000000         0.000524470        55.204761124       -37.763950530       -37.763188143         1.496859675
        43           21.500000         0.000394086        41.480832513       -37.763822210       -37.763187659         1.466724859
        44           22.000000         0.000273518        28.790044371       -37.763703029       -37.763187196         1.510953322
        45           22.500000         0.000170109        17.905372509       -37.763600431       -37.763186782         1.795697853
        46           23.000000         0.000090303         9.505151138       -37.763521008       -37.763186449         1.626683175
        47           23.500000         0.000039162         4.122090168       -37.763470000       -37.763186228         1.752875344
        48           24.000000         0.000019939         2.098715891       -37.763450846       -37.763186137         1.643559546
        49           24.500000         0.000033814         3.559165998       -37.763464912       -37.763186184         1.741894645
        50           25.000000         0.000079773         8.396807404       -37.763511360       -37.763186369         1.688605227
        51           25.500000         0.000154654        16.278618958       -37.763587171       -37.763186680         1.679130243
        52           26.000000         0.000253356        26.667768725       -37.763687358       -37.763187090         1.637933693
        53           26.500000         0.000369248        38.866361974       -37.763805358       -37.763187566         1.662560900
        54           27.000000         0.000494700        52.071283738       -37.763933579       -37.763188072         1.436703436
        55           27.500000         0.000621641        65.432830455       -37.764063945       -37.763188571         1.496383633
        56           28.000000         0.000742108        78.112938062       -37.764188468       -37.763189041         1.382503874
        57           28.500000         0.000848749        89.337813563       -37.764299726       -37.763189449         1.590057905
        58           29.000000         0.000935250        98.442735119       -37.764391307       -37.763189773         1.363672719
        59           29.500000         0.000996690       104.909833798       -37.764458170       -37.763189996         1.082855293
        60           30.000000         0.001029785       108.393318674       -37.764496892       -37.763190113         1.103539618
        61           30.500000         0.001033004       108.732202078       -37.764505793       -37.763190122         1.070232836
        62           31.000000         0.001006589       105.951786246       -37.764484949       -37.763190024         1.442786060
        63           31.500000         0.000952489       100.257242828       -37.764436155       -37.763189828         1.462575515
        64           32.000000         0.000874226        92.019514924       -37.764362788       -37.763189546         1.567049749
        65           32.500000         0.000776683        81.752285003       -37.764269609       -37.763189195         1.487311983
        66           33.000000         0.000665814        70.082445373       -37.764162482       -37.763188793         1.520161121
        67           33.500000         0.000548305        57.713636016       -37.764048042       -37.763188361         1.904786313
        68           34.000000         0.000431187        45.385928605       -37.763933315       -37.763187924         1.802668287
        69           34.500000         0.000321439        33.834048968       -37.763825326       -37.763187510         1.805159368
        70           35.000000         0.000225601        23.746329130       -37.763730696       -37.763187142         1.448271877
        71           35.500000         0.000149402        15.725754675       -37.763655272       -37.763186842         1.825469806
        72           36.000000         0.000097438        10.256164961       -37.763603797       -37.763186627         1.714640287
        73           36.500000         0.000072918         7.675192312       -37.763579641       -37.763186509         1.506711699
        74           37.000000         0.000077474         8.154808117       -37.763584608       -37.763186497         1.842864441
        75           37.500000         0.000111066        11.690625496       -37.763618821       -37.763186592         1.830770598
        76           38.000000         0.000171963        18.100469925       -37.763680700       -37.763186790         1.870368465
        77           38.500000         0.000256822        27.032644654       -37.763767033       -37.763187082         1.716224425
        78           39.000000         0.000360864        37.983897567       -37.763873141       -37.763187452         1.577630501
        79           39.500000         0.000478128        50.326897603       -37.763993131       -37.763187879         1.628809495
        80           40.000000         0.000601819        63.346383664       -37.764120239       -37.763188338         1.637905527
        81           40.500000         0.000724720        76.282727041       -37.764247242       -37.763188796         1.405568109
        82           41.000000         0.000839638        88.378811593       -37.764366908       -37.763189226         1.347493647
        83           41.500000         0.000939869        98.928978850       -37.764472459       -37.763189601         1.392872499
        84           42.000000         0.001019646       107.326140936       -37.764558024       -37.763189898         1.363784112
        85           42.500000         0.001074508       113.100789726       -37.764619014       -37.763190097         1.068245796
        86           43.000000         0.001101586       115.950999434       -37.764652411       -37.763190190         1.058844010
        87           43.500000         0.001099778       115.760629386       -37.764656955       -37.763190171         1.193298839
        88           44.000000         0.001069793       112.604488024       -37.764633192       -37.763190046         1.240159641
        89           44.500000         0.001014089       106.741152771       -37.764583424       -37.763189822         1.626836046
        90           45.000000         0.000936676        98.592880322       -37.764511524       -37.763189513         1.467021808
        91           45.500000         0.000842828        88.714607202       -37.764422659       -37.763189145         1.397244573
        92           46.000000         0.000738733        77.757665427       -37.764322942       -37.763188739         1.428359486
        93           46.500000         0.000631089        66.427266339       -37.764219045       -37.763188324         1.398820532
        94           47.000000         0.000526660        55.435333632       -37.764117744       -37.763187926         1.373215395
        95           47.500000         0.000431846        45.455359759       -37.764025495       -37.763187570         1.702767600
        96           48.000000         0.000352288        37.081175135       -37.763948027       -37.763187274         1.675295037
        97           48.500000         0.000292581        30.796605517       -37.763890058       -37.763187053         1.701388892
        98           49.000000         0.000256075        26.954045588       -37.763855077       -37.763186918         1.356413572
        99           49.500000         0.000244701        25.756786847       -37.763845170       -37.763186877         1.463421860
       100           50.000000         0.000258881        27.249344935       -37.763860915       -37.763186932         1.918542982
       101           50.500000         0.000297529        31.317330424       -37.763901372       -37.763187079         1.483401132
       102           51.000000         0.000358122        37.695306623       -37.763964145       -37.763187309         1.413636155
       103           51.500000         0.000436855        45.982526041       -37.764045534       -37.763187605         1.327550861
       104           52.000000         0.000528846        55.665351775       -37.764140743       -37.763187962         1.671997549
       105           52.500000         0.000628378        66.141907358       -37.764244100       -37.763188356         1.317880183
       106           53.000000         0.000729192        76.753497856       -37.764349355       -37.763188762         1.287643616
       107           53.500000         0.000824869        86.824289243       -37.764450063       -37.763189159         1.426603280
       108           54.000000         0.000909227        95.703647755       -37.764539979       -37.763189519         1.345611781
       109           54.500000         0.000976719       102.807678895       -37.764613466       -37.763189823         1.344350776
       110           55.000000         0.001022786       107.656652095       -37.764665842       -37.763190050         1.085986190
       111           55.500000         0.001044139       109.904225514       -37.764693672       -37.763190186         1.105827733
       112           56.000000         0.001038988       109.361979916       -37.764695003       -37.763190223         1.144997440
       113           56.500000         0.001007176       106.013536038       -37.764669512       -37.763190158         1.232230122
       114           57.000000         0.000950210       100.017418314       -37.764618539       -37.763189994         1.584076183
       115           57.500000         0.000871176        91.698454708       -37.764545018       -37.763189739         1.550649229
       116           58.000000         0.000774536        81.526286531       -37.764453291       -37.763189412         1.486650109
       117           58.500000         0.000665841        70.085212601       -37.764348823       -37.763189035         1.428636097
       118           59.000000         0.000551361        58.035324506       -37.764237842       -37.763188635         1.399388499
       119           59.500000         0.000437675        46.068884372       -37.764126921       -37.763188233         1.719005335
       120           60.000000         0.000331231        34.864759740       -37.764022559       -37.763187856         1.759294238
       121           60.500000         0.000237948        25.045974400       -37.763930765       -37.763187531         1.664583787
       122           61.000000         0.000162861        17.142507085       -37.763856694       -37.763187277         1.676911753
       123           61.500000         0.000109834        11.560935153       -37.763804355       -37.763187106         1.696278295
       124           62.000000         0.000081354         8.563218721       -37.763776395       -37.763187028         1.730467307
       125           62.500000         0.000078425         8.254925415       -37.763773979       -37.763187045         1.887154718
       126           63.000000         0.000100542        10.582889063       -37.763796755       -37.763187155         1.854920401
       127           63.500000         0.000145755        15.341953638       -37.763842912       -37.763187347         1.413299102
       128           64.000000         0.000210810        22.189498563       -37.763909312       -37.763187612         1.661673373
       129           64.500000         0.000291355        30.667550986       -37.763991691       -37.763187933         1.772012081
       130           65.000000         0.000382212        40.230965127       -37.764084925       -37.763188292         1.370100281
       131           65.500000         0.000477678        50.279572623       -37.764183333       -37.763188665         1.398721975
       132           66.000000         0.000571855        60.192424588       -37.764281006       -37.763189031         1.325852748
       133           66.500000         0.000658982        69.363226470       -37.764372145       -37.763189372         1.343703730
       134           67.000000         0.000733765        77.234804953       -37.764451385       -37.763189668         1.391856634
       135           67.500000         0.000791664        83.329167280       -37.764514092       -37.763189907         1.303891978
       136           68.000000         0.000829142        87.273981482       -37.764556608       -37.763190073         1.109509492
       137           68.500000         0.000843845        88.821611333       -37.764576449       -37.763190160         1.230067133
       138           69.000000         0.000834741        87.863297500       -37.764572438       -37.763190162         1.238773202
       139           69.500000         0.000802173        84.435286280       -37.764544771       -37.763190077         1.500384561
       140           70.000000         0.000747857        78.718091265       -37.764495026       -37.763189911         1.410570316
       141           70.500000         0.000674816        71.029957571       -37.764426103       -37.763189669         1.376378063
       142           71.000000         0.000587247        61.812574983       -37.764342101       -37.763189362         1.429744611
       143           71.500000         0.000490303        51.608436286       -37.764248111       -37.763189010         1.422465318
       144           72.000000         0.000389801        41.029743592       -37.764149929       -37.763188635         1.347485450
       145           72.500000         0.000291868        30.721489373       -37.764053701       -37.763188259         1.413590076
       146           73.000000         0.000202540        21.319045000       -37.763965524       -37.763187909         1.646381949
       147           73.500000         0.000127348        13.404421681       -37.763891025       -37.763187608         1.687759233
       148           74.000000         0.000070932         7.466181323       -37.763834975       -37.763187381         1.593917713
       149           74.500000         0.000036714         3.864489471       -37.763800941       -37.763187245         1.773688491
       150           75.000000         0.000026646         2.804722758       -37.763791023       -37.763187210         1.864929445
       151           75.500000         0.000041079         4.323877710       -37.763805718       -37.763187276         1.807523657
       152           76.000000         0.000078767         8.290871896       -37.763843910       -37.763187436         1.820839852
       153           76.500000         0.000137001        14.420524173       -37.763902998       -37.763187675         1.681229043
       154           77.000000         0.000211851        22.299016730       -37.763979128       -37.763187973         1.446937152
       155           77.500000         0.000298472        31.416583637       -37.764067513       -37.763188308         1.403430126
       156           78.000000         0.000391454        41.203698203       -37.764162767       -37.763188661         1.442886896
       157           78.500000         0.000485168        51.067928077       -37.764259260       -37.763189009         1.409239455
       158           79.000000         0.000574105        60.429267731       -37.764351450       -37.763189334         1.275191450
       159           79.500000         0.000653181        68.752641985       -37.764434201       -37.763189619         1.332080293
       160           80.000000         0.000717996        75.574965196       -37.764503039       -37.763189851         1.360722993
       161           80.500000         0.000765052        80.527970907       -37.764554370       -37.763190018         1.054935910
       162           81.000000         0.000791903        83.354264470       -37.764585643       -37.763190116         1.081066886
       163           81.500000         0.000797265        83.918639862       -37.764595455       -37.763190139         1.209972335
       164           82.000000         0.000781072        82.214290795       -37.764583620       -37.763190084         1.507735594
       165           82.500000         0.000744492        78.363900168       -37.764551188       -37.763189956         1.484444024
       166           83.000000         0.000689872        72.614718091       -37.764500401       -37.763189760         1.385536653
       167           83.500000         0.000620629        65.326284929       -37.764434590       -37.763189507         1.347670927
       168           84.000000         0.000541069        56.951994274       -37.764357998       -37.763189208         1.441516574
       169           84.500000         0.000456149        48.013409137       -37.764275550       -37.763188882         1.416690637
       170           85.000000         0.000371180        39.069729231       -37.764192562       -37.763188549         1.439711374
       171           85.500000         0.000291515        30.684359409       -37.764114423       -37.763188230         1.784772504
       172           86.000000         0.000222215        23.389941124       -37.764046258       -37.763187944         1.724813011
       173           86.500000         0.000167729        17.654888719       -37.763992611       -37.763187713         1.668707836
       174           87.000000         0.000131619        13.853956908       -37.763957152       -37.763187550         1.664341730
       175           87.500000         0.000116324        12.244095725       -37.763942441       -37.763187466         1.924994694
       176           88.000000         0.000123008        12.947614460       -37.763949765       -37.763187468         1.815860256
       177           88.500000         0.000151472        15.943660625       -37.763979041       -37.763187557         1.802477112
       178           89.000000         0.000200162        21.068671715       -37.764028820       -37.763187726         1.707008396
       179           89.500000         0.000266259        28.025990723       -37.764096366       -37.763187967         1.672718011
       180           90.000000         0.000345857        36.404319980       -37.764177833       -37.763188263         1.697787497
       181           90.500000         0.000434211        45.704320699       -37.764268511       -37.763188593         1.397113871
       182           91.000000         0.000526046        55.370670963       -37.764363132       -37.763188936         1.472978172
       183           91.500000         0.000615899        64.828390973       -37.764456220       -37.763189272         1.402561937
       184           92.000000         0.000698482        73.520937446       -37.764542444       -37.763189578         1.335546222
       185           92.500000         0.000769017        80.945318226       -37.764616965       -37.763189836         1.282974746
       186           93.000000         0.000823529        86.683165993       -37.764675729       -37.763190031         1.412359980
       187           93.500000         0.000859077        90.424869183       -37.764715700       -37.763190154         1.121028465
       188           94.000000         0.000873896        91.984738021       -37.764735015       -37.763190201         1.127843466
       189           94.500000         0.000867474        91.308738162       -37.764733054       -37.763190172         1.140833425
       190           95.000000         0.000840523        88.472000040       -37.764710425       -37.763190070         1.543551218
       191           95.500000         0.000794895        83.669256236       -37.764668884       -37.763189906         1.389265506
       192           96.000000         0.000733430        77.199565645       -37.764611187       -37.763189691         1.381603431
       193           96.500000         0.000659771        69.446337784       -37.764540912       -37.763189439         1.414526380
       194           97.000000         0.000578153        60.855391992       -37.764462246       -37.763189159         1.399509259
       195           97.500000         0.000493181        51.911349296       -37.764379774       -37.763188868         1.479033877
       196           98.000000         0.000409590        43.112764021       -37.764298241       -37.763188581         1.485021019
       197           98.500000         0.000331997        34.945419968       -37.764222295       -37.763188312         1.411348560
       198           99.000000         0.000264655        27.857139531       -37.764156249       -37.763188077         1.511324600
       199           99.500000         0.000211231        22.233839998       -37.764103850       -37.763187890         1.359435181
       200          100.000000         0.000174599        18.377935939       -37.764068063       -37.763187763         1.395419570
       201          100.500000         0.000156661        16.489849833       -37.764050894       -37.763187704         1.503510357
       202          101.000000         0.000158213        16.653222066       -37.764053239       -37.763187720         1.916257745
       203          101.500000         0.000178859        18.826420833       -37.764074801       -37.763187812         1.440583572
       204          102.000000         0.000217006        22.841640764       -37.764114067       -37.763187975         1.382966341
       205          102.500000         0.000269929        28.412279851       -37.764168383       -37.763188202         1.341378227
       206          103.000000         0.000333936        35.149465403       -37.764234097       -37.763188476         1.430350263
       207          103.500000         0.000404593        42.586697213       -37.764306798       -37.763188780         1.348096378
       208          104.000000         0.000477031        50.211430372       -37.764381616       -37.763189094         1.409782181
       209          104.500000         0.000546280        57.500510618       -37.764453554       -37.763189394         1.379836385
       210          105.000000         0.000607612        63.956121385       -37.764517838       -37.763189662         1.366433083
       211          105.500000         0.000656860        69.139959465       -37.764570242       -37.763189878         1.085672139
       212          106.000000         0.000690688        72.700551977       -37.764607354       -37.763190031         1.033238854
       213          106.500000         0.000706771        74.393470165       -37.764626771       -37.763190116         0.995238701
       214          107.000000         0.000703939        74.095359079       -37.764627234       -37.763190128         1.043468609
       215          107.500000         0.000682210        71.808252761       -37.764608673       -37.763190068         1.253580580
       216          108.000000         0.000642770        67.656772364       -37.764572193       -37.763189943         1.140465210
       217          108.500000         0.000587870        61.878131902       -37.764519974       -37.763189758         1.481452734
       218          109.000000         0.000520672        54.805032966       -37.764455121       -37.763189527         1.432145538
       219          109.500000         0.000445039        46.844010022       -37.764381460       -37.763189264         1.389835687
       220          110.000000         0.000365293        38.450104620       -37.764303304       -37.763188987         1.364185602
       221          110.500000         0.000285959        30.099569284       -37.764225184       -37.763188711         1.395845089
       222          111.000000         0.000211495        22.261542230       -37.764151587       -37.763188452         1.318328741
       223          111.500000         0.000146037        15.371556873       -37.764086703       -37.763188224         1.833795489
       224          112.000000         0.000093171         9.807053863       -37.764034184       -37.763188039         1.380865108
       225          112.500000         0.000055741         5.867230887       -37.763996950       -37.763187910         1.395111577
       226          113.000000         0.000035697         3.757364332       -37.763977035       -37.763187843         1.727221104
       227          113.500000         0.000033994         3.578151704       -37.763975478       -37.763187841         1.385501835