 DBCSR| CPU Multiplication driver                                           XSMM
 DBCSR| Multrec recursion limit                                              512
 DBCSR| Multiplication stack size                                           1000
 DBCSR| Maximum elements for images                                    UNLIMITED
 DBCSR| Multiplicative factor virtual images                                   1
 DBCSR| Use multiplication densification                                       T
 DBCSR| Multiplication size stacks                                             3
 DBCSR| Use memory pool for CPU allocation                                     F
 DBCSR| Number of 3D layers                                               SINGLE
 DBCSR| Use MPI memory allocation                                              F
 DBCSR| Use RMA algorithm                                                      F
 DBCSR| Use Communication thread                                               T
 DBCSR| Communication thread load                                             87
 DBCSR| MPI: My node id                                                        0
 DBCSR| MPI: Number of nodes                                                  24
 DBCSR| OMP: Current number of threads                                         1
 DBCSR| OMP: Max number of threads                                             1
 DBCSR| Split modifier for TAS multiplication algorithm                  1.0E+00


  **** **** ******  **  PROGRAM STARTED AT               2021-10-27 16:36:35.789
 ***** ** ***  *** **   PROGRAM STARTED ON                                 node2
 **    ****   ******    PROGRAM STARTED BY                               lujunbo
 ***** **    ** ** **   PROGRAM PROCESS ID                                721008
  **** **  *******  **  PROGRAM STARTED IN /home/lujunbo/WORK/deepmd/c2h6/mtd/tr
                                           ain_4_sys/cp2k_md/sys_4/data/task_289
                                           5

 CP2K| version string:                                          CP2K version 8.2
 CP2K| source code revision number:                                  git:310b7ab
 CP2K| cp2kflags: omp libint fftw3 libxc elpa parallel mpi3 scalapack xsmm plume
 CP2K|            d2 spglib mkl libvori libbqb
 CP2K| is freely available from                            https://www.cp2k.org/
 CP2K| Program compiled at                          Tue Jun  1 15:18:23 CST 2021
 CP2K| Program compiled on                                                   mgr
 CP2K| Program compiled for                                                local
 CP2K| Data directory path                       /home/lujunbo/bin/cp2k-8.2/data
 CP2K| Input file name                                                 input.inp

 GLOBAL| Force Environment number                                              1
 GLOBAL| Basis set file name            /home/lujunbo/bin/cp2k-8.2/data/BASIS_MO
 GLOBAL| Potential file name            /home/lujunbo/bin/cp2k-8.2/data/POTENTIA
 GLOBAL| MM Potential file name                                     MM_POTENTIAL
 GLOBAL| Coordinate file name                                      __STD_INPUT__
 GLOBAL| Method name                                                        CP2K
 GLOBAL| Project name                                                       cp2k
 GLOBAL| Run type                                                   ENERGY_FORCE
 GLOBAL| FFT library                                                       FFTW3
 GLOBAL| Diagonalization library                                            ELPA
 GLOBAL| Minimum number of eigenvectors for ELPA usage                        16
 GLOBAL| Orthonormality check for eigenvectors                          DISABLED
 GLOBAL| Matrix multiplication library                                    SCALAP
 GLOBAL| All-to-all communication in single precision                          F
 GLOBAL| FFTs using library dependent lengths                                  F
 GLOBAL| Grid backend                                                       AUTO
 GLOBAL| Global print level                                                  LOW
 GLOBAL| MPI I/O enabled                                                       T
 GLOBAL| Total number of message passing processes                            24
 GLOBAL| Number of threads for this process                                    1
 GLOBAL| This output is from process                                           0
 GLOBAL| CPU model name             Intel(R) Xeon(R) Platinum 9242 CPU @ 2.30GHz
 GLOBAL| CPUID                                                              1003

 MEMORY| system memory details [Kb]
 MEMORY|                        rank 0           min           max       average
 MEMORY| MemTotal            394609400     394609400     394609400     394609400
 MEMORY| MemFree             119615752     119615752     119616208     119615809
 MEMORY| Buffers                164324        164324        164324        164324
 MEMORY| Cached              243773044     243773044     243773048     243773044
 MEMORY| Slab                  3149460       3149460       3149460       3149460
 MEMORY| SReclaimable          2425348       2425348       2425348       2425348
 MEMORY| MemLikelyFree       365978468     365978468     365978928     365978525


 GENERATE|  Preliminary Number of Bonds generated:                             0
 GENERATE|  Achieved consistency in connectivity generation.

 *******************************************************************************
 *******************************************************************************
 **                                                                           **
 **     #####                         ##              ##                      **
 **    ##   ##            ##          ##              ##                      **
 **   ##     ##                       ##            ######                    **
 **   ##     ##  ##   ##  ##   #####  ##  ##   ####   ##    #####    #####    **
 **   ##     ##  ##   ##  ##  ##      ## ##   ##      ##   ##   ##  ##   ##   **
 **   ##  ## ##  ##   ##  ##  ##      ####     ###    ##   ######   ######    **
 **    ##  ###   ##   ##  ##  ##      ## ##      ##   ##   ##       ##        **
 **     #######   #####   ##   #####  ##  ##  ####    ##    #####   ##        **
 **           ##                                                    ##        **
 **                                                                           **
 **                                                ... make the atoms dance   **
 **                                                                           **
 **            Copyright (C) by CP2K developers group (2000-2021)             **
 **                      J. Chem. Phys. 152, 194103 (2020)                    **
 **                                                                           **
 *******************************************************************************


 TOTAL NUMBERS AND MAXIMUM NUMBERS

  Total number of            - Atomic kinds:                                   2
                             - Atoms:                                          8
                             - Shell sets:                                     8
                             - Shells:                                        28
                             - Primitive Cartesian functions:                 40
                             - Cartesian basis functions:                     58
                             - Spherical basis functions:                     56

  Maximum angular momentum of- Orbital basis functions:                        2
                             - Local part of the GTH pseudopotential:          2
                             - Non-local part of the GTH pseudopotential:      0


 SCF PARAMETERS         Density guess:                                   RESTART
                        --------------------------------------------------------
                        max_scf:                                             100
                        max_scf_history:                                       0
                        max_diis:                                              4
                        --------------------------------------------------------
                        eps_scf:                                        1.00E-06
                        eps_scf_history:                                0.00E+00
                        eps_diis:                                       1.00E-01
                        eps_eigval:                                     1.00E-05
                        --------------------------------------------------------
                        level_shift [a.u.]:                                 0.00
                        --------------------------------------------------------
                        Outer loop SCF in use 
                        No variables optimised in outer loop
                        eps_scf                                         1.00E-06
                        max_scf                                                6
                        No outer loop optimization
                        step_size                                       5.00E-01

 Number of electrons:                                                         14
 Number of occupied orbitals:                                                  7
 Number of molecular orbitals:                                                 7

 Number of orbital functions:                                                 56
 Number of independent orbital functions:                                     56

 Extrapolation method: initial_guess

 *** WARNING in qs_initial_guess.F:309 :: User requested to restart the    ***
 *** wavefunction from the file named: cp2k-RESTART.wfn. This file does    ***
 *** not exist. Please check the existence of the file or change properly  ***
 *** the value of the keyword WFN_RESTART_FILE_NAME. Calculation continues ***
 *** using ATOMIC GUESS.                                                   ***



 SCF WAVEFUNCTION OPTIMIZATION

  ----------------------------------- OT ---------------------------------------
  Minimizer      : CG                  : conjugate gradient
  Preconditioner : FULL_ALL            : diagonalization, state selective
  Precond_solver : DEFAULT
  Line search    : 2PNT                : 2 energies, one gradient
  stepsize       :    0.15000000                  energy_gap     :    0.08000000
  eps_taylor     :   0.10000E-15                  max_taylor     :             4
  ----------------------------------- OT ---------------------------------------

  Step     Update method      Time    Convergence         Total energy    Change
  ------------------------------------------------------------------------------
     1 OT CG       0.15E+00    7.0     0.24276308       -13.7546498567 -1.38E+01
     2 OT LS       0.75E-01    0.3                      -13.7315591673
     3 OT CG       0.75E-01    0.4     0.09437202       -14.7450559156 -9.90E-01
     4 OT LS       0.94E-01    0.2                      -14.8836356749
     5 OT CG       0.94E-01    0.4     0.07298496       -14.8891123319 -1.44E-01
     6 OT LS       0.46E-01    0.2                      -14.8854627714
     7 OT CG       0.46E-01    0.4     0.02446456       -14.9362981256 -4.72E-02
     8 OT LS       0.10E+00    0.2                      -14.9446045039
     9 OT CG       0.10E+00    0.4     0.01164814       -14.9483737795 -1.21E-02
    10 OT LS       0.90E-01    0.2                      -14.9506922192
    11 OT CG       0.90E-01    0.4     0.00640464       -14.9507544008 -2.38E-03
    12 OT LS       0.56E-01    0.2                      -14.9510381386
    13 OT CG       0.56E-01    0.5     0.00283960       -14.9512052853 -4.51E-04
    14 OT LS       0.96E-01    0.2                      -14.9513306976
    15 OT CG       0.96E-01    0.4     0.00107471       -14.9513565026 -1.51E-04
    16 OT LS       0.90E-01    0.2                      -14.9513768444
    17 OT CG       0.90E-01    0.4     0.00063383       -14.9513769201 -2.04E-05
    18 OT LS       0.64E-01    0.2                      -14.9513810431
    19 OT CG       0.64E-01    0.4     0.00032907       -14.9513819249 -5.00E-06
    20 OT LS       0.92E-01    0.2                      -14.9513836938
    21 OT CG       0.92E-01    0.4     0.00013146       -14.9513838830 -1.96E-06
    22 OT LS       0.81E-01    0.2                      -14.9513841514
    23 OT CG       0.81E-01    0.4     0.00008037       -14.9513841569 -2.74E-07
    24 OT LS       0.81E-01    0.3                      -14.9513842590
    25 OT CG       0.81E-01    0.4     0.00003545       -14.9513842590 -1.02E-07
    26 OT LS       0.67E-01    0.2                      -14.9513842747
    27 OT CG       0.67E-01    0.4     0.00001955       -14.9513842754 -1.64E-08
    28 OT LS       0.84E-01    0.2                      -14.9513842814
    29 OT CG       0.84E-01    0.4     0.00000823       -14.9513842817 -6.27E-09
    30 OT LS       0.97E-01    0.2                      -14.9513842829
    31 OT CG       0.97E-01    0.4     0.00000442       -14.9513842830 -1.29E-09
    32 OT LS       0.68E-01    0.2                      -14.9513842832
    33 OT CG       0.68E-01    0.4     0.00000248       -14.9513842832 -2.61E-10
    34 OT LS       0.73E-01    0.2                      -14.9513842833
    35 OT CG       0.73E-01    0.4     0.00000097       -14.9513842833 -8.86E-11

  *** SCF run converged in    35 steps ***


  Electronic density on regular grids:        -14.0000000000        0.0000000000
  Core density on regular grids:               13.9999999990       -0.0000000010
  Total charge density on r-space grids:       -0.0000000010
  Total charge density g-space grids:          -0.0000000010

  Overlap energy of the core charge distribution:               0.00000152456485
  Self energy of the core charge distribution:                -35.13285960674677
  Core Hamiltonian energy:                                     11.39004863952984
  Hartree energy:                                              14.44457250817265
  Exchange-correlation energy:                                 -5.65314734884372

  Total energy:                                               -14.95138428332315

  outer SCF iter =    1 RMS gradient =   0.97E-06 energy =        -14.9513842833
  outer SCF loop converged in   1 iterations or   35 steps


 ENERGY| Total FORCE_EVAL ( QS ) energy [a.u.]:              -14.951384283339799

 -------------------------------------------------------------------------------
 -                                                                             -
 -                                DBCSR STATISTICS                             -
 -                                                                             -
 -------------------------------------------------------------------------------
 COUNTER                                    TOTAL       BLAS       SMM       ACC
 flops     7 x     7 x     7               130340       0.0%    100.0%      0.0%
 flops     5 x    13 x     7               202020       0.0%    100.0%      0.0%
 flops    13 x     5 x     7               202020       0.0%    100.0%      0.0%
 flops     7 x     7 x    13               229320       0.0%    100.0%      0.0%
 flops    13 x    13 x     7               262626       0.0%    100.0%      0.0%
 flops     7 x     7 x     5               264600       0.0%    100.0%      0.0%
 flops     5 x     5 x     7               271950       0.0%    100.0%      0.0%
 flops    26 x     7 x     7               318500       0.0%    100.0%      0.0%
 flops    26 x     7 x    13               359632       0.0%    100.0%      0.0%
 flops    10 x     7 x     7               367500       0.0%    100.0%      0.0%
 flops    26 x     7 x     5               414960       0.0%    100.0%      0.0%
 flops    10 x     7 x    13               414960       0.0%    100.0%      0.0%
 flops    10 x     7 x     5               478800       0.0%    100.0%      0.0%
 flops    13 x     7 x    13               586768       0.0%    100.0%      0.0%
 flops    13 x     7 x     5               677040       0.0%    100.0%      0.0%
 flops     5 x     7 x    13               677040       0.0%    100.0%      0.0%
 flops     5 x     7 x     5               781200       0.0%    100.0%      0.0%
 flops inhomo. stacks                           0       0.0%      0.0%      0.0%
 flops total                         6.639276E+06       0.0%    100.0%      0.0%
 flops max/rank                      3.243786E+06       0.0%    100.0%      0.0%
 matmuls inhomo. stacks                         0       0.0%      0.0%      0.0%
 matmuls total                               7926       0.0%    100.0%      0.0%
 number of processed stacks                  5498       0.0%    100.0%      0.0%
 average stack size                                     0.0       1.4       0.0
 marketing flops                     7.330595E+06
 -------------------------------------------------------------------------------
 # multiplications                            543
 max memory usage/rank             177.463296E+06
 # max total images/rank                        3
 # max 3D layers                                1
 # MPI messages exchanged                  247608
 MPI messages size (bytes):
  total size                        19.373816E+06
  min size                           0.000000E+00
  max size                           2.704000E+03
  average size                      78.243904E+00
 MPI breakdown and total messages size (bytes):
             size <=      128              217647                        0
       128 < size <=     8192               29961                 19373816
      8192 < size <=    32768                   0                        0
     32768 < size <=   131072                   0                        0
    131072 < size <=  4194304                   0                        0
   4194304 < size <= 16777216                   0                        0
  16777216 < size                               0                        0
 -------------------------------------------------------------------------------

 *** WARNING in dbcsr_mm.F:294 :: Using a non-square number of MPI ranks ***
 *** might lead to poor performance. Used ranks: 24 Suggested: 25 49     ***

 -------------------------------------------------------------------------------
 -                                                                             -
 -                      DBCSR MESSAGE PASSING PERFORMANCE                      -
 -                                                                             -
 -------------------------------------------------------------------------------
 ROUTINE             CALLS      AVE VOLUME [Bytes]
 MP_Bcast               18                     12.
 MP_Allreduce         2788                      8.
 MP_Alltoall          2186                   1369.
 MP_ISend            22802                    162.
 MP_IRecv            22802                    109.
 -------------------------------------------------------------------------------

 -------------------------------------------------------------------------------
 -                                                                             -
 -                                GRID STATISTICS                              -
 -                                                                             -
 -------------------------------------------------------------------------------
 LP    KERNEL             BACKEND                              COUNT     PERCENT
 2     collocate ortho    REF                                  24516      38.36%
 3     collocate ortho    REF                                  13680      21.41%
 2     integrate ortho    REF                                  12258      19.18%
 3     integrate ortho    REF                                   6840      10.70%
 4     collocate ortho    REF                                   3384       5.30%
 4     integrate ortho    REF                                   1692       2.65%
 5     integrate ortho    REF                                    681       1.07%
 6     integrate ortho    REF                                    380       0.59%
 0     collocate general  REF                                    192       0.30%
 3     integrate general  REF                                    192       0.30%
 7     integrate ortho    REF                                     94       0.15%
 -------------------------------------------------------------------------------

 MEMORY| Estimated peak process memory [MiB]                                 170

 -------------------------------------------------------------------------------
 -                                                                             -
 -                         MESSAGE PASSING PERFORMANCE                         -
 -                                                                             -
 -------------------------------------------------------------------------------

 ROUTINE             CALLS      AVE VOLUME [Bytes]
 MP_Group                4
 MP_Bcast              657                 559751.
 MP_Allreduce         1970                    173.
 MP_Sync                80
 MP_Alltoall           528                2988879.
 MP_ISendRecv         3795                  53808.
 MP_Wait              5733
 MP_comm_split          38
 MP_ISend             1710                 171663.
 MP_IRecv             1710                 171404.
 MP_Recv                 6                    896.
 -------------------------------------------------------------------------------


 -------------------------------------------------------------------------------
 -                                                                             -
 -                           R E F E R E N C E S                               -
 -                                                                             -
 -------------------------------------------------------------------------------
 
 CP2K version 8.2, the CP2K developers group (2021).
 CP2K is freely available from https://www.cp2k.org/ .

 Kuehne,Thomas D.; Iannuzzi,Marcella; Del Ben,Mauro;
 Rybkin,Vladimir V.; Seewald,Patrick; Stein,Frederick; Laino,Teodoro;
 Khaliullin,Rustam Z.; Schuett,Ole; Schiffmann,Florian; Golze,Dorothea;
 Wilhelm,Jan; Chulkov,Sergey; Bani-Hashemian,Mohammad Hossein;
 Weber,Valery; Borstnik,Urban; Taillefumier,Mathieu;
 Jakobovits,Alice Shoshana; Lazzaro,Alfio; Pabst,Hans; Mueller,Tiziano;
 Schade,Robert; Guidon,Manuel; Andermatt,Samuel; Holmberg,Nico;
 Schenter,Gregory K.; Hehn,Anna; Bussy,Augustin; Belleflamme,Fabian;
 Tabacchi,Gloria; Gloess,Andreas; Lass,Michael; Bethune,Iain;
 Mundy,Christopher J.; Plessl,Christian; Watkins,Matt;
 VandeVondele,Joost; Krack,Matthias; Hutter,Juerg. 
 The Journal of Chemical Physics, 152 (19), (2020). 
 CP2K: An electronic structure and molecular dynamics software package -
 Quickstep: Efficient and accurate electronic structure calculations.
 https://doi.org/10.1063/5.0007045

 Schuett, Ole; Messmer, Peter; Hutter, Juerg; VandeVondele, Joost. 
 Electronic Structure Calculations on Graphics Processing Units, John
 Wiley & Sons, Ltd, 173-190 (2016). 
 GPU-Accelerated Sparse Matrix-Matrix Multiplication for
 Linear Scaling Density Functional Theory.
 https://doi.org/10.1002/9781118670712.ch8

 Heinecke, A; Henry, G; Hutchinson, M; Pabst, H. 
 Proceedings of Intl. Supercomputing Conference, 981-991 (2016). 
 LIBXSMM: Accelerating Small Matrix Multiplications
 by Runtime Code Generation.
 https://doi.org/10.1109/SC.2016.83

 Borstnik, U; VandeVondele, J; Weber, V; Hutter, J. 
 PARALLEL COMPUTING, 40 (5-6), 47-58 (2014). 
 Sparse matrix multiplication: The distributed block-compressed sparse
 row library.
 https://doi.org/10.1016/j.parco.2014.03.012

 Hutter, J; Iannuzzi, M; Schiffmann, F; VandeVondele, J. 
 WIREs Comput Mol Sci., 4 (1), 15-25 (2014). 
 CP2K: atomistic simulations of condensed matter systems.
 https://doi.org/10.1002/wcms.1159

 Marek, A; Blum, V; Johanni, R; Havu, V; Lang, B; Auckenthaler, T;
 Heinecke, A; Bungartz, H; Lederer, H. 
 Journal of Physics: Condensed Matter, 26 (21), (2014). 
 The ELPA library: scalable parallel eigenvalue solutions for
 electronic structure
 theory and computational science.
 https://doi.org/10.1088/0953-8984/26/21/213201

 VandeVondele, J; Hutter, J. 
 JOURNAL OF CHEMICAL PHYSICS, 127 (11), 114105 (2007). 
 Gaussian basis sets for accurate calculations on molecular systems in
 gas and condensed phases.
 https://doi.org/10.1063/1.2770708

 Krack, M. 
 THEORETICAL CHEMISTRY ACCOUNTS, 114 (1-3), 145-152 (2005). 
 Pseudopotentials for H to Kr optimized for gradient-corrected
 exchange-correlation functionals.
 https://doi.org/10.1007/s00214-005-0655-y

 VandeVondele, J; Krack, M; Mohamed, F; Parrinello, M; Chassaing, T;
 Hutter, J. COMPUTER PHYSICS COMMUNICATIONS, 167 (2), 103-128 (2005). 
 QUICKSTEP: Fast and accurate density functional calculations using a
 mixed Gaussian and plane waves approach.
 https://doi.org/10.1016/j.cpc.2004.12.014

 Frigo, M; Johnson, SG. 
 PROCEEDINGS OF THE IEEE, 93 (2), 216-231 (2005). 
 The design and implementation of FFTW3.
 https://doi.org/10.1109/JPROC.2004.840301

 VandeVondele, J; Hutter, J. 
 JOURNAL OF CHEMICAL PHYSICS, 118 (10), 4365-4369 (2003). 
 An efficient orbital transformation method for electronic structure
 calculations.
 https://doi.org/10.1063/1.1543154

 Hartwigsen, C; Goedecker, S; Hutter, J. 
 PHYSICAL REVIEW B, 58 (7), 3641-3662 (1998). 
 Relativistic separable dual-space Gaussian pseudopotentials from H to Rn.
 https://doi.org/10.1103/PhysRevB.58.3641

 Lippert, G; Hutter, J; Parrinello, M. 
 MOLECULAR PHYSICS, 92 (3), 477-487 (1997). 
 A hybrid Gaussian and plane wave density functional scheme.
 https://doi.org/10.1080/002689797170220

 Perdew, JP; Burke, K; Ernzerhof, M. 
 PHYSICAL REVIEW LETTERS, 77 (18), 3865-3868 (1996). 
 Generalized gradient approximation made simple.
 https://doi.org/10.1103/PhysRevLett.77.3865

 Goedecker, S; Teter, M; Hutter, J. 
 PHYSICAL REVIEW B, 54 (3), 1703-1710 (1996). 
 Separable dual-space Gaussian pseudopotentials.
 https://doi.org/10.1103/PhysRevB.54.1703


 -------------------------------------------------------------------------------
 -                                                                             -
 -                                T I M I N G                                  -
 -                                                                             -
 -------------------------------------------------------------------------------
 SUBROUTINE                       CALLS  ASD         SELF TIME        TOTAL TIME
                                MAXIMUM       AVERAGE  MAXIMUM  AVERAGE  MAXIMUM
 CP2K                                 1  1.0    0.009    0.024   28.802   28.806
 qs_forces                            1  2.0    0.001    0.013   20.857   20.870
 qs_energies                          1  3.0    0.000    0.000   20.453   20.454
 scf_env_do_scf                       1  4.0    0.000    0.000   18.474   18.478
 scf_env_do_scf_inner_loop           35  5.0    0.001    0.003   12.040   12.053
 rebuild_ks_matrix                   36  6.9    0.000    0.000    9.680    9.710
 qs_ks_build_kohn_sham_matrix        36  7.9    0.005    0.017    9.680    9.710
 qs_ks_update_qs_env                 36  6.0    0.000    0.000    9.364    9.403
 pw_transfer                        532 10.4    0.027    0.058    8.163    8.425
 fft_wrap_pw1pw2                    460 11.4    0.005    0.018    8.111    8.376
 fft3d_ps                           460 13.4    1.550    2.791    7.469    7.758
 fft_wrap_pw1pw2_200                295 12.7    0.205    0.437    7.032    7.333
 qs_vxc_create                       36  8.9    0.000    0.001    6.637    6.678
 init_scf_loop                        1  5.0    0.000    0.000    6.432    6.450
 mp_alltoall_z22v                   460 15.4    5.671    6.105    5.671    6.105
 create_qs_kind_set                   1  2.0    0.000    0.000    5.641    5.643
 read_qs_kind                         2  3.0    0.018    0.040    5.641    5.643
 parser_read_line                  5424  4.0    0.002    0.002    5.623    5.625
 parser_read_line_low                 8  5.0    0.005    0.013    5.621    5.624
 broadcast_input_information          8  6.0    0.000    0.000    5.616    5.620
 mp_bcast_am                          8  7.0    5.195    5.595    5.296    5.608
 mp_bcast_i                         118  3.4    0.249    5.390    0.249    5.390
 xc_vxc_pw_create                    19  9.8    0.036    0.072    4.645    4.686
 xc_rho_set_and_dset_create          36 10.9    0.017    0.051    3.498    4.548
 qs_rho_update_rho                   36  6.0    0.000    0.000    3.850    3.879
 calculate_rho_elec                  36  7.0    0.020    0.023    3.850    3.879
 prepare_preconditioner               1  6.0    0.000    0.000    3.608    3.626
 density_rs2pw                       36  8.0    0.002    0.002    3.378    3.449
 x_to_yz                            239 15.1    0.162    0.250    3.038    3.173
 yz_to_x                            221 13.7    0.078    0.140    2.874    3.147
 dbcsr_multiply_generic             543 10.9    0.016    0.029    2.712    2.774
 mp_sum_l                          2859 11.0    2.306    2.453    2.306    2.453
 rs_pw_transfer                     222 10.0    0.004    0.017    2.336    2.410
 dbcsr_complete_redistribute        103 11.9    0.004    0.017    2.175    2.219
 subspace_eigenvalues_ks_dbcsr        2  7.5    0.000    0.000    2.125    2.144
 sum_up_and_integrate                19  8.8    0.005    0.017    2.085    2.101
 integrate_v_rspace                  19  9.8    0.000    0.000    2.080    2.097
 xc_functional_eval                  36 11.9    0.000    0.000    0.999    2.035
 pbe_lda_eval                        36 12.9    0.999    2.034    0.999    2.034
 xc_exc_calc                         17 10.0    0.008    0.009    1.991    1.991
 potential_pw2rs                     19 10.8    0.002    0.014    1.770    1.794
 init_scf_run                         1  4.0    0.000    0.000    1.695    1.704
 scf_env_initial_rho_setup            1  5.0    0.000    0.000    1.695    1.704
 mp_waitall_1                     34431 14.7    1.499    1.685    1.499    1.685
 qs_scf_new_mos                      35  6.0    0.000    0.000    1.635    1.653
 qs_scf_loop_do_ot                   35  7.0    0.000    0.000    1.635    1.653
 mp_alltoall_d11v                   572 13.0    1.463    1.596    1.463    1.596
 ot_scf_mini                         35  8.0    0.000    0.001    1.573    1.590
 make_preconditioner                  1  7.0    0.000    0.000    1.576    1.579
 copy_dbcsr_to_fm                    52 10.9    0.001    0.001    1.500    1.514
 cp_dbcsr_syevd                      37 10.9    0.002    0.003    1.500    1.514
 mp_sum_d                          1048  7.6    1.093    1.299    1.093    1.299
 copy_fm_to_dbcsr                    51 11.0    0.000    0.000    1.208    1.262
 ot_mini                             35  9.0    0.000    0.000    1.015    1.033
 multiply_cannon                    543 11.9    0.031    0.033    0.798    0.925
 mp_waitany                        1710 11.9    0.713    0.892    0.713    0.892
 mp_alltoall_i11v                   412 13.0    0.863    0.868    0.863    0.868
 make_full_all                        1  8.0    0.001    0.011    0.724    0.845
 make_m2s                          1086 11.9    0.012    0.013    0.714    0.834
 qs_ot_get_derivative                18 10.0    0.000    0.001    0.817    0.830
 rs_pw_transfer_RS2PW_200            37  9.9    0.216    0.278    0.771    0.829
 make_images                       1086 12.9    0.020    0.033    0.657    0.781
 cp_fm_syevd                         37 11.9    0.000    0.000    0.723    0.735
 cp_fm_redistribute_start            38 12.8    0.514    0.546    0.651    0.693
 make_images_sizes                 1086 13.9    0.001    0.014    0.517    0.661
 mp_alltoall_i44                   1086 14.9    0.516    0.660    0.516    0.660
 calculate_first_density_matrix       1  6.0    0.001    0.011    0.603    0.626
 qs_ot_get_p                         36  8.9    0.000    0.000    0.597    0.612
 multiply_cannon_loop               543 12.9    0.023    0.036    0.424    0.582
 -------------------------------------------------------------------------------

 The number of warnings for this run is : 2
 
 -------------------------------------------------------------------------------
  **** **** ******  **  PROGRAM ENDED AT                 2021-10-27 16:37:05.530
 ***** ** ***  *** **   PROGRAM RAN ON                                     node2
 **    ****   ******    PROGRAM RAN BY                                   lujunbo
 ***** **    ** ** **   PROGRAM PROCESS ID                                721008
  **** **  *******  **  PROGRAM STOPPED IN /home/lujunbo/WORK/deepmd/c2h6/mtd/tr
                                           ain_4_sys/cp2k_md/sys_4/data/task_289
                                           5
