 DBCSR| CPU Multiplication driver                                           XSMM
 DBCSR| Multrec recursion limit                                              512
 DBCSR| Multiplication stack size                                           1000
 DBCSR| Maximum elements for images                                    UNLIMITED
 DBCSR| Multiplicative factor virtual images                                   1
 DBCSR| Use multiplication densification                                       T
 DBCSR| Multiplication size stacks                                             3
 DBCSR| Use memory pool for CPU allocation                                     F
 DBCSR| Number of 3D layers                                               SINGLE
 DBCSR| Use MPI memory allocation                                              F
 DBCSR| Use RMA algorithm                                                      F
 DBCSR| Use Communication thread                                               T
 DBCSR| Communication thread load                                             87
 DBCSR| MPI: My node id                                                        0
 DBCSR| MPI: Number of nodes                                                  24
 DBCSR| OMP: Current number of threads                                         1
 DBCSR| OMP: Max number of threads                                             1
 DBCSR| Split modifier for TAS multiplication algorithm                  1.0E+00


  **** **** ******  **  PROGRAM STARTED AT               2021-10-27 16:39:26.572
 ***** ** ***  *** **   PROGRAM STARTED ON                                 node2
 **    ****   ******    PROGRAM STARTED BY                               lujunbo
 ***** **    ** ** **   PROGRAM PROCESS ID                                722018
  **** **  *******  **  PROGRAM STARTED IN /home/lujunbo/WORK/deepmd/c2h6/mtd/tr
                                           ain_4_sys/cp2k_md/sys_4/data/task_290
                                           8

 CP2K| version string:                                          CP2K version 8.2
 CP2K| source code revision number:                                  git:310b7ab
 CP2K| cp2kflags: omp libint fftw3 libxc elpa parallel mpi3 scalapack xsmm plume
 CP2K|            d2 spglib mkl libvori libbqb
 CP2K| is freely available from                            https://www.cp2k.org/
 CP2K| Program compiled at                          Tue Jun  1 15:18:23 CST 2021
 CP2K| Program compiled on                                                   mgr
 CP2K| Program compiled for                                                local
 CP2K| Data directory path                       /home/lujunbo/bin/cp2k-8.2/data
 CP2K| Input file name                                                 input.inp

 GLOBAL| Force Environment number                                              1
 GLOBAL| Basis set file name            /home/lujunbo/bin/cp2k-8.2/data/BASIS_MO
 GLOBAL| Potential file name            /home/lujunbo/bin/cp2k-8.2/data/POTENTIA
 GLOBAL| MM Potential file name                                     MM_POTENTIAL
 GLOBAL| Coordinate file name                                      __STD_INPUT__
 GLOBAL| Method name                                                        CP2K
 GLOBAL| Project name                                                       cp2k
 GLOBAL| Run type                                                   ENERGY_FORCE
 GLOBAL| FFT library                                                       FFTW3
 GLOBAL| Diagonalization library                                            ELPA
 GLOBAL| Minimum number of eigenvectors for ELPA usage                        16
 GLOBAL| Orthonormality check for eigenvectors                          DISABLED
 GLOBAL| Matrix multiplication library                                    SCALAP
 GLOBAL| All-to-all communication in single precision                          F
 GLOBAL| FFTs using library dependent lengths                                  F
 GLOBAL| Grid backend                                                       AUTO
 GLOBAL| Global print level                                                  LOW
 GLOBAL| MPI I/O enabled                                                       T
 GLOBAL| Total number of message passing processes                            24
 GLOBAL| Number of threads for this process                                    1
 GLOBAL| This output is from process                                           0
 GLOBAL| CPU model name             Intel(R) Xeon(R) Platinum 9242 CPU @ 2.30GHz
 GLOBAL| CPUID                                                              1003

 MEMORY| system memory details [Kb]
 MEMORY|                        rank 0           min           max       average
 MEMORY| MemTotal            394609400     394609400     394609400     394609400
 MEMORY| MemFree             119535512     119535512     119535512     119535512
 MEMORY| Buffers                164324        164324        164324        164324
 MEMORY| Cached              243824908     243824908     243824908     243824908
 MEMORY| Slab                  3150476       3150476       3150476       3150476
 MEMORY| SReclaimable          2424940       2424940       2424940       2424940
 MEMORY| MemLikelyFree       365949684     365949684     365949684     365949684


 GENERATE|  Preliminary Number of Bonds generated:                             0
 GENERATE|  Achieved consistency in connectivity generation.

 *******************************************************************************
 *******************************************************************************
 **                                                                           **
 **     #####                         ##              ##                      **
 **    ##   ##            ##          ##              ##                      **
 **   ##     ##                       ##            ######                    **
 **   ##     ##  ##   ##  ##   #####  ##  ##   ####   ##    #####    #####    **
 **   ##     ##  ##   ##  ##  ##      ## ##   ##      ##   ##   ##  ##   ##   **
 **   ##  ## ##  ##   ##  ##  ##      ####     ###    ##   ######   ######    **
 **    ##  ###   ##   ##  ##  ##      ## ##      ##   ##   ##       ##        **
 **     #######   #####   ##   #####  ##  ##  ####    ##    #####   ##        **
 **           ##                                                    ##        **
 **                                                                           **
 **                                                ... make the atoms dance   **
 **                                                                           **
 **            Copyright (C) by CP2K developers group (2000-2021)             **
 **                      J. Chem. Phys. 152, 194103 (2020)                    **
 **                                                                           **
 *******************************************************************************


 TOTAL NUMBERS AND MAXIMUM NUMBERS

  Total number of            - Atomic kinds:                                   2
                             - Atoms:                                          8
                             - Shell sets:                                     8
                             - Shells:                                        28
                             - Primitive Cartesian functions:                 40
                             - Cartesian basis functions:                     58
                             - Spherical basis functions:                     56

  Maximum angular momentum of- Orbital basis functions:                        2
                             - Local part of the GTH pseudopotential:          2
                             - Non-local part of the GTH pseudopotential:      0


 SCF PARAMETERS         Density guess:                                   RESTART
                        --------------------------------------------------------
                        max_scf:                                             100
                        max_scf_history:                                       0
                        max_diis:                                              4
                        --------------------------------------------------------
                        eps_scf:                                        1.00E-06
                        eps_scf_history:                                0.00E+00
                        eps_diis:                                       1.00E-01
                        eps_eigval:                                     1.00E-05
                        --------------------------------------------------------
                        level_shift [a.u.]:                                 0.00
                        --------------------------------------------------------
                        Outer loop SCF in use 
                        No variables optimised in outer loop
                        eps_scf                                         1.00E-06
                        max_scf                                                6
                        No outer loop optimization
                        step_size                                       5.00E-01

 Number of electrons:                                                         14
 Number of occupied orbitals:                                                  7
 Number of molecular orbitals:                                                 7

 Number of orbital functions:                                                 56
 Number of independent orbital functions:                                     56

 Extrapolation method: initial_guess

 *** WARNING in qs_initial_guess.F:309 :: User requested to restart the    ***
 *** wavefunction from the file named: cp2k-RESTART.wfn. This file does    ***
 *** not exist. Please check the existence of the file or change properly  ***
 *** the value of the keyword WFN_RESTART_FILE_NAME. Calculation continues ***
 *** using ATOMIC GUESS.                                                   ***



 SCF WAVEFUNCTION OPTIMIZATION

  ----------------------------------- OT ---------------------------------------
  Minimizer      : CG                  : conjugate gradient
  Preconditioner : FULL_ALL            : diagonalization, state selective
  Precond_solver : DEFAULT
  Line search    : 2PNT                : 2 energies, one gradient
  stepsize       :    0.15000000                  energy_gap     :    0.08000000
  eps_taylor     :   0.10000E-15                  max_taylor     :             4
  ----------------------------------- OT ---------------------------------------

  Step     Update method      Time    Convergence         Total energy    Change
  ------------------------------------------------------------------------------
     1 OT CG       0.15E+00    0.2     0.23914373       -13.8148249499 -1.38E+01
     2 OT LS       0.74E-01    0.1                      -13.7710396764
     3 OT CG       0.74E-01    0.3     0.08675783       -14.7564419624 -9.42E-01
     4 OT LS       0.12E+00    0.1                      -14.8876458242
     5 OT CG       0.12E+00    0.3     0.05866673       -14.9085767296 -1.52E-01
     6 OT LS       0.48E-01    0.1                      -14.8697562248
     7 OT CG       0.48E-01    0.2     0.02172822       -14.9399525706 -3.14E-02
     8 OT LS       0.90E-01    0.2                      -14.9462902228
     9 OT CG       0.90E-01    0.3     0.01046520       -14.9479945285 -8.04E-03
    10 OT LS       0.96E-01    0.2                      -14.9500189879
    11 OT CG       0.96E-01    0.3     0.00495135       -14.9500267722 -2.03E-03
    12 OT LS       0.62E-01    0.2                      -14.9502339230
    13 OT CG       0.62E-01    0.3     0.00270992       -14.9503233457 -2.97E-04
    14 OT LS       0.90E-01    0.2                      -14.9504401640
    15 OT CG       0.90E-01    0.3     0.00110074       -14.9504530298 -1.30E-04
    16 OT LS       0.78E-01    0.1                      -14.9504710297
    17 OT CG       0.78E-01    0.3     0.00052429       -14.9504714956 -1.85E-05
    18 OT LS       0.82E-01    0.1                      -14.9504759081
    19 OT CG       0.82E-01    0.3     0.00029776       -14.9504759207 -4.43E-06
    20 OT LS       0.70E-01    0.2                      -14.9504770906
    21 OT CG       0.70E-01    0.3     0.00015105       -14.9504771300 -1.21E-06
    22 OT LS       0.85E-01    0.1                      -14.9504774965
    23 OT CG       0.85E-01    0.2     0.00006072       -14.9504775085 -3.78E-07
    24 OT LS       0.10E+00    0.1                      -14.9504775792
    25 OT CG       0.10E+00    0.3     0.00003566       -14.9504775810 -7.25E-08
    26 OT LS       0.59E-01    0.1                      -14.9504775883
    27 OT CG       0.59E-01    0.3     0.00001649       -14.9504775956 -1.47E-08
    28 OT LS       0.93E-01    0.1                      -14.9504775999
    29 OT CG       0.93E-01    0.3     0.00000701       -14.9504776006 -4.98E-09
    30 OT LS       0.99E-01    0.1                      -14.9504776016
    31 OT CG       0.99E-01    0.2     0.00000401       -14.9504776016 -9.53E-10
    32 OT LS       0.60E-01    0.1                      -14.9504776017
    33 OT CG       0.60E-01    0.2     0.00000195       -14.9504776018 -1.90E-10
    34 OT LS       0.90E-01    0.1                      -14.9504776018
    35 OT CG       0.90E-01    0.3     0.00000086       -14.9504776018 -6.71E-11

  *** SCF run converged in    35 steps ***


  Electronic density on regular grids:        -14.0000000000        0.0000000000
  Core density on regular grids:               13.9999999989       -0.0000000011
  Total charge density on r-space grids:       -0.0000000010
  Total charge density g-space grids:          -0.0000000010

  Overlap energy of the core charge distribution:               0.00000158671244
  Self energy of the core charge distribution:                -35.13285960674677
  Core Hamiltonian energy:                                     11.37745580080397
  Hartree energy:                                              14.45446675683811
  Exchange-correlation energy:                                 -5.64954213943339

  Total energy:                                               -14.95047760182564

  outer SCF iter =    1 RMS gradient =   0.86E-06 energy =        -14.9504776018
  outer SCF loop converged in   1 iterations or   35 steps


 ENERGY| Total FORCE_EVAL ( QS ) energy [a.u.]:              -14.950477601839019

 -------------------------------------------------------------------------------
 -                                                                             -
 -                                DBCSR STATISTICS                             -
 -                                                                             -
 -------------------------------------------------------------------------------
 COUNTER                                    TOTAL       BLAS       SMM       ACC
 flops     7 x     7 x     7               130340       0.0%    100.0%      0.0%
 flops     5 x    13 x     7               202020       0.0%    100.0%      0.0%
 flops    13 x     5 x     7               202020       0.0%    100.0%      0.0%
 flops     7 x     7 x    13               229320       0.0%    100.0%      0.0%
 flops    13 x    13 x     7               262626       0.0%    100.0%      0.0%
 flops     7 x     7 x     5               264600       0.0%    100.0%      0.0%
 flops     5 x     5 x     7               271950       0.0%    100.0%      0.0%
 flops    26 x     7 x     7               318500       0.0%    100.0%      0.0%
 flops    26 x     7 x    13               359632       0.0%    100.0%      0.0%
 flops    10 x     7 x     7               367500       0.0%    100.0%      0.0%
 flops    26 x     7 x     5               414960       0.0%    100.0%      0.0%
 flops    10 x     7 x    13               414960       0.0%    100.0%      0.0%
 flops    10 x     7 x     5               478800       0.0%    100.0%      0.0%
 flops    13 x     7 x    13               586768       0.0%    100.0%      0.0%
 flops    13 x     7 x     5               677040       0.0%    100.0%      0.0%
 flops     5 x     7 x    13               677040       0.0%    100.0%      0.0%
 flops     5 x     7 x     5               781200       0.0%    100.0%      0.0%
 flops inhomo. stacks                           0       0.0%      0.0%      0.0%
 flops total                         6.639276E+06       0.0%    100.0%      0.0%
 flops max/rank                      3.243786E+06       0.0%    100.0%      0.0%
 matmuls inhomo. stacks                         0       0.0%      0.0%      0.0%
 matmuls total                               7926       0.0%    100.0%      0.0%
 number of processed stacks                  5498       0.0%    100.0%      0.0%
 average stack size                                     0.0       1.4       0.0
 marketing flops                     7.330595E+06
 -------------------------------------------------------------------------------
 # multiplications                            543
 max memory usage/rank             178.585600E+06
 # max total images/rank                        3
 # max 3D layers                                1
 # MPI messages exchanged                  247608
 MPI messages size (bytes):
  total size                        19.373816E+06
  min size                           0.000000E+00
  max size                           2.704000E+03
  average size                      78.243904E+00
 MPI breakdown and total messages size (bytes):
             size <=      128              217647                        0
       128 < size <=     8192               29961                 19373816
      8192 < size <=    32768                   0                        0
     32768 < size <=   131072                   0                        0
    131072 < size <=  4194304                   0                        0
   4194304 < size <= 16777216                   0                        0
  16777216 < size                               0                        0
 -------------------------------------------------------------------------------

 *** WARNING in dbcsr_mm.F:294 :: Using a non-square number of MPI ranks ***
 *** might lead to poor performance. Used ranks: 24 Suggested: 25 49     ***

 -------------------------------------------------------------------------------
 -                                                                             -
 -                      DBCSR MESSAGE PASSING PERFORMANCE                      -
 -                                                                             -
 -------------------------------------------------------------------------------
 ROUTINE             CALLS      AVE VOLUME [Bytes]
 MP_Bcast               18                     12.
 MP_Allreduce         2788                      8.
 MP_Alltoall          2186                   1369.
 MP_ISend            22802                    162.
 MP_IRecv            22802                    109.
 -------------------------------------------------------------------------------

 -------------------------------------------------------------------------------
 -                                                                             -
 -                                GRID STATISTICS                              -
 -                                                                             -
 -------------------------------------------------------------------------------
 LP    KERNEL             BACKEND                              COUNT     PERCENT
 2     collocate ortho    REF                                  24372      38.27%
 3     collocate ortho    REF                                  13680      21.48%
 2     integrate ortho    REF                                  12186      19.13%
 3     integrate ortho    REF                                   6840      10.74%
 4     collocate ortho    REF                                   3384       5.31%
 4     integrate ortho    REF                                   1692       2.66%
 5     integrate ortho    REF                                    677       1.06%
 6     integrate ortho    REF                                    380       0.60%
 0     collocate general  REF                                    192       0.30%
 3     integrate general  REF                                    192       0.30%
 7     integrate ortho    REF                                     94       0.15%
 -------------------------------------------------------------------------------

 MEMORY| Estimated peak process memory [MiB]                                 171

 -------------------------------------------------------------------------------
 -                                                                             -
 -                         MESSAGE PASSING PERFORMANCE                         -
 -                                                                             -
 -------------------------------------------------------------------------------

 ROUTINE             CALLS      AVE VOLUME [Bytes]
 MP_Group                4
 MP_Bcast              661                 556364.
 MP_Allreduce         1980                    173.
 MP_Sync                80
 MP_Alltoall           528                2988879.
 MP_ISendRecv         3795                  53808.
 MP_Wait              5733
 MP_comm_split          38
 MP_ISend             1710                 171663.
 MP_IRecv             1710                 171404.
 MP_Recv                 6                    896.
 -------------------------------------------------------------------------------


 -------------------------------------------------------------------------------
 -                                                                             -
 -                           R E F E R E N C E S                               -
 -                                                                             -
 -------------------------------------------------------------------------------
 
 CP2K version 8.2, the CP2K developers group (2021).
 CP2K is freely available from https://www.cp2k.org/ .

 Kuehne,Thomas D.; Iannuzzi,Marcella; Del Ben,Mauro;
 Rybkin,Vladimir V.; Seewald,Patrick; Stein,Frederick; Laino,Teodoro;
 Khaliullin,Rustam Z.; Schuett,Ole; Schiffmann,Florian; Golze,Dorothea;
 Wilhelm,Jan; Chulkov,Sergey; Bani-Hashemian,Mohammad Hossein;
 Weber,Valery; Borstnik,Urban; Taillefumier,Mathieu;
 Jakobovits,Alice Shoshana; Lazzaro,Alfio; Pabst,Hans; Mueller,Tiziano;
 Schade,Robert; Guidon,Manuel; Andermatt,Samuel; Holmberg,Nico;
 Schenter,Gregory K.; Hehn,Anna; Bussy,Augustin; Belleflamme,Fabian;
 Tabacchi,Gloria; Gloess,Andreas; Lass,Michael; Bethune,Iain;
 Mundy,Christopher J.; Plessl,Christian; Watkins,Matt;
 VandeVondele,Joost; Krack,Matthias; Hutter,Juerg. 
 The Journal of Chemical Physics, 152 (19), (2020). 
 CP2K: An electronic structure and molecular dynamics software package -
 Quickstep: Efficient and accurate electronic structure calculations.
 https://doi.org/10.1063/5.0007045

 Schuett, Ole; Messmer, Peter; Hutter, Juerg; VandeVondele, Joost. 
 Electronic Structure Calculations on Graphics Processing Units, John
 Wiley & Sons, Ltd, 173-190 (2016). 
 GPU-Accelerated Sparse Matrix-Matrix Multiplication for
 Linear Scaling Density Functional Theory.
 https://doi.org/10.1002/9781118670712.ch8

 Heinecke, A; Henry, G; Hutchinson, M; Pabst, H. 
 Proceedings of Intl. Supercomputing Conference, 981-991 (2016). 
 LIBXSMM: Accelerating Small Matrix Multiplications
 by Runtime Code Generation.
 https://doi.org/10.1109/SC.2016.83

 Borstnik, U; VandeVondele, J; Weber, V; Hutter, J. 
 PARALLEL COMPUTING, 40 (5-6), 47-58 (2014). 
 Sparse matrix multiplication: The distributed block-compressed sparse
 row library.
 https://doi.org/10.1016/j.parco.2014.03.012

 Hutter, J; Iannuzzi, M; Schiffmann, F; VandeVondele, J. 
 WIREs Comput Mol Sci., 4 (1), 15-25 (2014). 
 CP2K: atomistic simulations of condensed matter systems.
 https://doi.org/10.1002/wcms.1159

 Marek, A; Blum, V; Johanni, R; Havu, V; Lang, B; Auckenthaler, T;
 Heinecke, A; Bungartz, H; Lederer, H. 
 Journal of Physics: Condensed Matter, 26 (21), (2014). 
 The ELPA library: scalable parallel eigenvalue solutions for
 electronic structure
 theory and computational science.
 https://doi.org/10.1088/0953-8984/26/21/213201

 VandeVondele, J; Hutter, J. 
 JOURNAL OF CHEMICAL PHYSICS, 127 (11), 114105 (2007). 
 Gaussian basis sets for accurate calculations on molecular systems in
 gas and condensed phases.
 https://doi.org/10.1063/1.2770708

 Krack, M. 
 THEORETICAL CHEMISTRY ACCOUNTS, 114 (1-3), 145-152 (2005). 
 Pseudopotentials for H to Kr optimized for gradient-corrected
 exchange-correlation functionals.
 https://doi.org/10.1007/s00214-005-0655-y

 VandeVondele, J; Krack, M; Mohamed, F; Parrinello, M; Chassaing, T;
 Hutter, J. COMPUTER PHYSICS COMMUNICATIONS, 167 (2), 103-128 (2005). 
 QUICKSTEP: Fast and accurate density functional calculations using a
 mixed Gaussian and plane waves approach.
 https://doi.org/10.1016/j.cpc.2004.12.014

 Frigo, M; Johnson, SG. 
 PROCEEDINGS OF THE IEEE, 93 (2), 216-231 (2005). 
 The design and implementation of FFTW3.
 https://doi.org/10.1109/JPROC.2004.840301

 VandeVondele, J; Hutter, J. 
 JOURNAL OF CHEMICAL PHYSICS, 118 (10), 4365-4369 (2003). 
 An efficient orbital transformation method for electronic structure
 calculations.
 https://doi.org/10.1063/1.1543154

 Hartwigsen, C; Goedecker, S; Hutter, J. 
 PHYSICAL REVIEW B, 58 (7), 3641-3662 (1998). 
 Relativistic separable dual-space Gaussian pseudopotentials from H to Rn.
 https://doi.org/10.1103/PhysRevB.58.3641

 Lippert, G; Hutter, J; Parrinello, M. 
 MOLECULAR PHYSICS, 92 (3), 477-487 (1997). 
 A hybrid Gaussian and plane wave density functional scheme.
 https://doi.org/10.1080/002689797170220

 Perdew, JP; Burke, K; Ernzerhof, M. 
 PHYSICAL REVIEW LETTERS, 77 (18), 3865-3868 (1996). 
 Generalized gradient approximation made simple.
 https://doi.org/10.1103/PhysRevLett.77.3865

 Goedecker, S; Teter, M; Hutter, J. 
 PHYSICAL REVIEW B, 54 (3), 1703-1710 (1996). 
 Separable dual-space Gaussian pseudopotentials.
 https://doi.org/10.1103/PhysRevB.54.1703


 -------------------------------------------------------------------------------
 -                                                                             -
 -                                T I M I N G                                  -
 -                                                                             -
 -------------------------------------------------------------------------------
 SUBROUTINE                       CALLS  ASD         SELF TIME        TOTAL TIME
                                MAXIMUM       AVERAGE  MAXIMUM  AVERAGE  MAXIMUM
 CP2K                                 1  1.0    0.007    0.015    7.675    7.677
 qs_forces                            1  2.0    0.000    0.000    7.558    7.558
 qs_energies                          1  3.0    0.000    0.000    7.302    7.302
 scf_env_do_scf                       1  4.0    0.000    0.000    7.150    7.151
 scf_env_do_scf_inner_loop           35  5.0    0.001    0.004    6.938    6.938
 rebuild_ks_matrix                   36  6.9    0.000    0.000    4.858    4.859
 qs_ks_build_kohn_sham_matrix        36  7.9    0.004    0.005    4.858    4.859
 qs_ks_update_qs_env                 36  6.0    0.000    0.000    4.612    4.613
 pw_transfer                        532 10.4    0.027    0.030    3.719    3.895
 fft_wrap_pw1pw2                    460 11.4    0.004    0.005    3.666    3.840
 fft_wrap_pw1pw2_200                295 12.7    0.213    0.232    3.490    3.674
 qs_vxc_create                       36  8.9    0.001    0.001    3.651    3.662
 fft3d_ps                           460 13.4    1.604    1.870    2.998    3.187
 xc_rho_set_and_dset_create          36 10.9    0.017    0.018    2.386    2.678
 xc_vxc_pw_create                    19  9.8    0.035    0.041    2.385    2.395
 qs_rho_update_rho                   36  6.0    0.000    0.000    1.964    1.965
 calculate_rho_elec                  36  7.0    0.020    0.022    1.963    1.964
 density_rs2pw                       36  8.0    0.002    0.002    1.643    1.703
 mp_alltoall_z22v                   460 15.4    1.133    1.458    1.133    1.458
 xc_exc_calc                         17 10.0    0.008    0.009    1.266    1.266
 xc_functional_eval                  36 11.9    0.000    0.000    0.962    1.244
 pbe_lda_eval                        36 12.9    0.961    1.244    0.961    1.244
 rs_pw_transfer                     222 10.0    0.003    0.004    1.075    1.125
 x_to_yz                            239 15.1    0.171    0.208    0.743    0.857
 yz_to_x                            221 13.7    0.082    0.097    0.643    0.847
 sum_up_and_integrate                19  8.8    0.004    0.005    0.772    0.773
 integrate_v_rspace                  19  9.8    0.000    0.001    0.768    0.768
 potential_pw2rs                     19 10.8    0.001    0.001    0.607    0.608
 qs_scf_new_mos                      35  6.0    0.000    0.000    0.602    0.602
 qs_scf_loop_do_ot                   35  7.0    0.000    0.000    0.601    0.602
 ot_scf_mini                         35  8.0    0.000    0.001    0.552    0.553
 rs_pw_transfer_RS2PW_200            37  9.9    0.232    0.265    0.499    0.548
 dbcsr_multiply_generic             543 10.9    0.015    0.017    0.497    0.502
 mp_sum_d                          1050  7.6    0.283    0.452    0.283    0.452
 grid_collocate_task_list            36  8.0    0.240    0.449    0.240    0.449
 mp_waitany                        1710 11.9    0.308    0.389    0.308    0.389
 mp_waitall_1                     34431 14.7    0.237    0.257    0.237    0.257
 qs_ks_update_qs_env_forces           1  3.0    0.000    0.000    0.249    0.249
 ot_mini                             35  9.0    0.000    0.000    0.247    0.248
 pw_scatter_p                       239 14.1    0.225    0.240    0.225    0.240
 rs_pw_transfer_PW2RS_200            20 12.6    0.134    0.147    0.229    0.236
 pw_gather_p                        221 12.7    0.214    0.229    0.214    0.229
 qs_ot_get_p                         36  8.9    0.000    0.000    0.217    0.219
 init_scf_loop                        1  5.0    0.000    0.000    0.211    0.211
 qs_ot_get_derivative                18 10.0    0.000    0.000    0.207    0.208
 make_m2s                          1086 11.9    0.012    0.014    0.195    0.203
 multiply_cannon                    543 11.9    0.030    0.033    0.181    0.191
 mp_alltoall_d11v                   572 13.0    0.142    0.165    0.142    0.165
 grid_integrate_task_list            19 10.8    0.039    0.157    0.039    0.157
 qs_ot_p2m_diag                      35 10.0    0.001    0.001    0.153    0.155
 -------------------------------------------------------------------------------

 The number of warnings for this run is : 2
 
 -------------------------------------------------------------------------------
  **** **** ******  **  PROGRAM ENDED AT                 2021-10-27 16:39:34.699
 ***** ** ***  *** **   PROGRAM RAN ON                                     node2
 **    ****   ******    PROGRAM RAN BY                                   lujunbo
 ***** **    ** ** **   PROGRAM PROCESS ID                                722018
  **** **  *******  **  PROGRAM STOPPED IN /home/lujunbo/WORK/deepmd/c2h6/mtd/tr
                                           ain_4_sys/cp2k_md/sys_4/data/task_290
                                           8
